   4   4   0   0
  0.2841110E+02  0.4300141E-09  0.4300141E-09  0.6145861E-09  0.5000000E-15
  1.000000000000000E-004
  CAR 
 Ga2BiAs                                 
     14.22296214    -24.94144429  301      3.19867415      1.00000000
    -24.941  0.0000E+00  0.0000E+00
    -24.811  0.0000E+00  0.0000E+00
    -24.680  0.0000E+00  0.0000E+00
    -24.550  0.0000E+00  0.0000E+00
    -24.419  0.0000E+00  0.0000E+00
    -24.289  0.0000E+00  0.0000E+00
    -24.158  0.0000E+00  0.0000E+00
    -24.028  0.0000E+00  0.0000E+00
    -23.897  0.0000E+00  0.0000E+00
    -23.767  0.0000E+00  0.0000E+00
    -23.636  0.0000E+00  0.0000E+00
    -23.505  0.0000E+00  0.0000E+00
    -23.375  0.1085E-07  0.1417E-08
    -23.244  0.1917E+00  0.2502E-01
    -23.114  0.2671E+02  0.3512E+01
    -22.983  0.3742E+01  0.4000E+01
    -22.853  0.2134E-04  0.4000E+01
    -22.722  0.0000E+00  0.4000E+01
    -22.592  0.0000E+00  0.4000E+01
    -22.461  0.0000E+00  0.4000E+01
    -22.330  0.0000E+00  0.4000E+01
    -22.200  0.0000E+00  0.4000E+01
    -22.069  0.0000E+00  0.4000E+01
    -21.939  0.0000E+00  0.4000E+01
    -21.808  0.0000E+00  0.4000E+01
    -21.678  0.0000E+00  0.4000E+01
    -21.547  0.0000E+00  0.4000E+01
    -21.417  0.0000E+00  0.4000E+01
    -21.286  0.0000E+00  0.4000E+01
    -21.156  0.0000E+00  0.4000E+01
    -21.025  0.0000E+00  0.4000E+01
    -20.894  0.0000E+00  0.4000E+01
    -20.764  0.0000E+00  0.4000E+01
    -20.633  0.0000E+00  0.4000E+01
    -20.503  0.0000E+00  0.4000E+01
    -20.372  0.3742E-15  0.4000E+01
    -20.242  0.2063E-04  0.4000E+01
    -20.111  0.3789E+01  0.4495E+01
    -19.981  0.4134E+02  0.9892E+01
    -19.850  0.8280E+00  0.1000E+02
    -19.720  0.3429E-06  0.1000E+02
    -19.589  0.0000E+00  0.1000E+02
    -19.458  0.0000E+00  0.1000E+02
    -19.328  0.0000E+00  0.1000E+02
    -19.197  0.0000E+00  0.1000E+02
    -19.067  0.0000E+00  0.1000E+02
    -18.936  0.0000E+00  0.1000E+02
    -18.806  0.0000E+00  0.1000E+02
    -18.675  0.0000E+00  0.1000E+02
    -18.545  0.0000E+00  0.1000E+02
    -18.414  0.0000E+00  0.1000E+02
    -18.283  0.0000E+00  0.1000E+02
    -18.153  0.0000E+00  0.1000E+02
    -18.022  0.0000E+00  0.1000E+02
    -17.892  0.0000E+00  0.1000E+02
    -17.761  0.0000E+00  0.1000E+02
    -17.631  0.0000E+00  0.1000E+02
    -17.500  0.0000E+00  0.1000E+02
    -17.370  0.0000E+00  0.1000E+02
    -17.239  0.0000E+00  0.1000E+02
    -17.109  0.0000E+00  0.1000E+02
    -16.978  0.0000E+00  0.1000E+02
    -16.847  0.0000E+00  0.1000E+02
    -16.717  0.0000E+00  0.1000E+02
    -16.586  0.0000E+00  0.1000E+02
    -16.456  0.0000E+00  0.1000E+02
    -16.325  0.0000E+00  0.1000E+02
    -16.195  0.0000E+00  0.1000E+02
    -16.064  0.0000E+00  0.1000E+02
    -15.934  0.0000E+00  0.1000E+02
    -15.803  0.0000E+00  0.1000E+02
    -15.673  0.0000E+00  0.1000E+02
    -15.542  0.0000E+00  0.1000E+02
    -15.411  0.0000E+00  0.1000E+02
    -15.281  0.0000E+00  0.1000E+02
    -15.150  0.0000E+00  0.1000E+02
    -15.020  0.0000E+00  0.1000E+02
    -14.889  0.0000E+00  0.1000E+02
    -14.759  0.0000E+00  0.1000E+02
    -14.628  0.0000E+00  0.1000E+02
    -14.498  0.0000E+00  0.1000E+02
    -14.367  0.0000E+00  0.1000E+02
    -14.237  0.0000E+00  0.1000E+02
    -14.106  0.0000E+00  0.1000E+02
    -13.975  0.0000E+00  0.1000E+02
    -13.845  0.0000E+00  0.1000E+02
    -13.714  0.0000E+00  0.1000E+02
    -13.584  0.0000E+00  0.1000E+02
    -13.453  0.0000E+00  0.1000E+02
    -13.323  0.0000E+00  0.1000E+02
    -13.192  0.0000E+00  0.1000E+02
    -13.062  0.0000E+00  0.1000E+02
    -12.931  0.0000E+00  0.1000E+02
    -12.800  0.0000E+00  0.1000E+02
    -12.670  0.0000E+00  0.1000E+02
    -12.539  0.0000E+00  0.1000E+02
    -12.409  0.0000E+00  0.1000E+02
    -12.278  0.0000E+00  0.1000E+02
    -12.148  0.0000E+00  0.1000E+02
    -12.017  0.0000E+00  0.1000E+02
    -11.887  0.0000E+00  0.1000E+02
    -11.756  0.0000E+00  0.1000E+02
    -11.626  0.0000E+00  0.1000E+02
    -11.495  0.0000E+00  0.1000E+02
    -11.364  0.0000E+00  0.1000E+02
    -11.234  0.0000E+00  0.1000E+02
    -11.103  0.0000E+00  0.1000E+02
    -10.973  0.3765E-14  0.1000E+02
    -10.842  0.1071E-04  0.1000E+02
    -10.712  0.8700E-01  0.1001E+02
    -10.581  0.1173E+00  0.1003E+02
    -10.451  0.4041E+00  0.1008E+02
    -10.320  0.7822E+00  0.1018E+02
    -10.190  0.6827E+00  0.1027E+02
    -10.059  0.1791E+01  0.1050E+02
     -9.928  0.7016E+00  0.1060E+02
     -9.798  0.1292E+01  0.1076E+02
     -9.667  0.7106E+00  0.1086E+02
     -9.537  0.2759E+01  0.1122E+02
     -9.406  0.2906E+01  0.1160E+02
     -9.276  0.1241E+01  0.1176E+02
     -9.145  0.1603E+01  0.1197E+02
     -9.015  0.5111E+01  0.1264E+02
     -8.884  0.2828E+01  0.1300E+02
     -8.753  0.2961E+01  0.1339E+02
     -8.623  0.1716E+01  0.1362E+02
     -8.492  0.2342E+01  0.1392E+02
     -8.362  0.6048E+00  0.1400E+02
     -8.231  0.1592E-04  0.1400E+02
     -8.101  0.0000E+00  0.1400E+02
     -7.970  0.0000E+00  0.1400E+02
     -7.840  0.0000E+00  0.1400E+02
     -7.709  0.0000E+00  0.1400E+02
     -7.579  0.0000E+00  0.1400E+02
     -7.448  0.0000E+00  0.1400E+02
     -7.317  0.0000E+00  0.1400E+02
     -7.187  0.0000E+00  0.1400E+02
     -7.056  0.0000E+00  0.1400E+02
     -6.926  0.0000E+00  0.1400E+02
     -6.795  0.0000E+00  0.1400E+02
     -6.665  0.0000E+00  0.1400E+02
     -6.534  0.0000E+00  0.1400E+02
     -6.404  0.0000E+00  0.1400E+02
     -6.273  0.0000E+00  0.1400E+02
     -6.143  0.0000E+00  0.1400E+02
     -6.012  0.0000E+00  0.1400E+02
     -5.881  0.0000E+00  0.1400E+02
     -5.751  0.0000E+00  0.1400E+02
     -5.620  0.0000E+00  0.1400E+02
     -5.490  0.0000E+00  0.1400E+02
     -5.359  0.0000E+00  0.1400E+02
     -5.229  0.0000E+00  0.1400E+02
     -5.098  0.0000E+00  0.1400E+02
     -4.968  0.0000E+00  0.1400E+02
     -4.837  0.2529E-14  0.1400E+02
     -4.707  0.1366E-04  0.1400E+02
     -4.576  0.2307E+00  0.1403E+02
     -4.445  0.1939E+01  0.1428E+02
     -4.315  0.1750E+01  0.1451E+02
     -4.184  0.4901E+01  0.1515E+02
     -4.054  0.3833E+01  0.1565E+02
     -3.923  0.1279E+01  0.1582E+02
     -3.793  0.9654E+00  0.1594E+02
     -3.662  0.1750E+01  0.1617E+02
     -3.532  0.4078E+01  0.1671E+02
     -3.401  0.1537E+01  0.1691E+02
     -3.270  0.2836E+00  0.1694E+02
     -3.140  0.2392E+00  0.1697E+02
     -3.009  0.1195E+01  0.1713E+02
     -2.879  0.3256E+00  0.1717E+02
     -2.748  0.1700E+00  0.1720E+02
     -2.618  0.5306E+00  0.1726E+02
     -2.487  0.3172E+00  0.1731E+02
     -2.357  0.1040E+01  0.1744E+02
     -2.226  0.3932E+00  0.1749E+02
     -2.096  0.2391E-03  0.1749E+02
     -1.965  0.4748E+00  0.1756E+02
     -1.834  0.1118E+01  0.1770E+02
     -1.704  0.4146E-01  0.1771E+02
     -1.573  0.4822E-03  0.1771E+02
     -1.443  0.5628E+00  0.1778E+02
     -1.312  0.1419E+01  0.1797E+02
     -1.182  0.7258E+00  0.1806E+02
     -1.051  0.2079E+01  0.1833E+02
     -0.921  0.2191E+01  0.1862E+02
     -0.790  0.1216E+01  0.1878E+02
     -0.660  0.3434E+01  0.1922E+02
     -0.529  0.2058E+01  0.1949E+02
     -0.398  0.1462E+01  0.1968E+02
     -0.268  0.2943E+01  0.2007E+02
     -0.137  0.1830E+01  0.2031E+02
     -0.007  0.4580E+01  0.2091E+02
      0.124  0.3533E+01  0.2137E+02
      0.254  0.3773E+01  0.2186E+02
      0.385  0.2582E+01  0.2220E+02
      0.515  0.3215E+01  0.2262E+02
      0.646  0.1575E+01  0.2282E+02
      0.777  0.3229E+01  0.2324E+02
      0.907  0.8112E+00  0.2335E+02
      1.038  0.1423E+01  0.2353E+02
      1.168  0.1435E+01  0.2372E+02
      1.299  0.3726E+01  0.2421E+02
      1.429  0.3738E+01  0.2470E+02
      1.560  0.3873E+00  0.2475E+02
      1.690  0.9753E+00  0.2487E+02
      1.821  0.8735E+00  0.2499E+02
      1.951  0.1156E+01  0.2514E+02
      2.082  0.5037E+00  0.2521E+02
      2.213  0.6708E+00  0.2529E+02
      2.343  0.2019E+01  0.2556E+02
      2.474  0.2241E+01  0.2585E+02
      2.604  0.1444E+00  0.2587E+02
      2.735  0.3842E+00  0.2592E+02
      2.865  0.3973E+00  0.2597E+02
      2.996  0.7371E-01  0.2598E+02
      3.126  0.1584E+00  0.2600E+02
      3.257  0.4357E-03  0.2600E+02
      3.387  0.1506E+00  0.2602E+02
      3.518  0.1350E+01  0.2620E+02
      3.649  0.3379E+00  0.2624E+02
      3.779  0.2327E-04  0.2624E+02
      3.910  0.1660E-01  0.2624E+02
      4.040  0.1339E+01  0.2642E+02
      4.171  0.1335E+01  0.2659E+02
      4.301  0.9755E+00  0.2672E+02
      4.432  0.2129E+00  0.2675E+02
      4.562  0.9859E+00  0.2688E+02
      4.693  0.2326E+01  0.2718E+02
      4.824  0.2144E+01  0.2746E+02
      4.954  0.4110E+01  0.2800E+02
      5.085  0.4852E+01  0.2863E+02
      5.215  0.2974E+01  0.2902E+02
      5.346  0.2218E+01  0.2931E+02
      5.476  0.1315E+01  0.2948E+02
      5.607  0.9235E+00  0.2960E+02
      5.737  0.2410E+01  0.2991E+02
      5.868  0.1276E+01  0.3008E+02
      5.998  0.2854E-01  0.3008E+02
      6.129  0.1181E+01  0.3024E+02
      6.260  0.2358E+01  0.3055E+02
      6.390  0.3582E+01  0.3101E+02
      6.521  0.5012E+00  0.3108E+02
      6.651  0.1599E+01  0.3129E+02
      6.782  0.1235E+01  0.3145E+02
      6.912  0.4668E+01  0.3206E+02
      7.043  0.5277E+01  0.3275E+02
      7.173  0.1501E+01  0.3294E+02
      7.304  0.1408E+01  0.3313E+02
      7.434  0.4338E+01  0.3369E+02
      7.565  0.3549E+01  0.3416E+02
      7.696  0.2858E+01  0.3453E+02
      7.826  0.3637E+01  0.3500E+02
      7.957  0.1142E+01  0.3515E+02
      8.087  0.1834E+01  0.3539E+02
      8.218  0.3161E+01  0.3581E+02
      8.348  0.3026E+01  0.3620E+02
      8.479  0.2112E+01  0.3648E+02
      8.609  0.2594E+01  0.3681E+02
      8.740  0.1652E+01  0.3703E+02
      8.870  0.2308E+01  0.3733E+02
      9.001  0.5256E+01  0.3802E+02
      9.132  0.1275E+01  0.3818E+02
      9.262  0.2803E+01  0.3855E+02
      9.393  0.8776E+00  0.3866E+02
      9.523  0.9064E+00  0.3878E+02
      9.654  0.1128E+01  0.3893E+02
      9.784  0.1382E+01  0.3911E+02
      9.915  0.2929E+01  0.3949E+02
     10.045  0.5399E+00  0.3956E+02
     10.176  0.7320E-01  0.3957E+02
     10.307  0.2901E+00  0.3961E+02
     10.437  0.2374E+00  0.3964E+02
     10.568  0.1089E+01  0.3978E+02
     10.698  0.8309E+00  0.3989E+02
     10.829  0.3903E-02  0.3989E+02
     10.959  0.4054E-07  0.3989E+02
     11.090  0.2679E-01  0.3990E+02
     11.220  0.3758E+00  0.3995E+02
     11.351  0.1889E+00  0.3997E+02
     11.481  0.2255E+00  0.4000E+02
     11.612  0.7534E-04  0.4000E+02
     11.743  0.8273E-13  0.4000E+02
     11.873  0.0000E+00  0.4000E+02
     12.004  0.0000E+00  0.4000E+02
     12.134  0.0000E+00  0.4000E+02
     12.265  0.0000E+00  0.4000E+02
     12.395  0.0000E+00  0.4000E+02
     12.526  0.0000E+00  0.4000E+02
     12.656  0.0000E+00  0.4000E+02
     12.787  0.0000E+00  0.4000E+02
     12.917  0.0000E+00  0.4000E+02
     13.048  0.0000E+00  0.4000E+02
     13.179  0.0000E+00  0.4000E+02
     13.309  0.0000E+00  0.4000E+02
     13.440  0.0000E+00  0.4000E+02
     13.570  0.0000E+00  0.4000E+02
     13.701  0.0000E+00  0.4000E+02
     13.831  0.0000E+00  0.4000E+02
     13.962  0.0000E+00  0.4000E+02
     14.092  0.0000E+00  0.4000E+02
     14.223  0.0000E+00  0.4000E+02
