    4    4    1    1
  0.2841110E+02  0.4300141E-09  0.4300141E-09  0.6145861E-09  0.5000000E-15
  1.000000000000000E-004
  CAR 
 Ga2BiAs                                 
     26    147     40
 
  0.0000000E+00  0.0000000E+00  0.0000000E+00  0.1333333E-01
    1      -23.158077   1.000000
    2      -23.158077   1.000000
    3      -23.154707   1.000000
    4      -23.154707   1.000000
    5      -20.076813   1.000000
    6      -20.076813   1.000000
    7      -20.057478   1.000000
    8      -20.057478   1.000000
    9      -20.047555   1.000000
   10      -20.047555   1.000000
   11      -10.705110   1.000000
   12      -10.705110   1.000000
   13       -8.667021   1.000000
   14       -8.667021   1.000000
   15       -4.556885   1.000000
   16       -4.556885   1.000000
   17       -0.339737   1.000000
   18       -0.339737   1.000000
   19       -0.025436   1.000000
   20       -0.025436   1.000000
   21        1.749963   1.000000
   22        1.749963   1.000000
   23        1.999556   1.000000
   24        1.999556   1.000000
   25        3.022790   1.000000
   26        3.022790   1.000000
   27        3.374571   0.000000
   28        3.374571   0.000000
   29        4.352676   0.000000
   30        4.352676   0.000000
   31        4.572017   0.000000
   32        4.572017   0.000000
   33        6.348067   0.000000
   34        6.348067   0.000000
   35        6.593088   0.000000
   36        6.593088   0.000000
   37        6.734292   0.000000
   38        6.734292   0.000000
   39        9.349308   0.000000
   40        9.349308   0.000000
 
  0.2000000E+00  0.0000000E+00  0.0000000E+00  0.1333333E-01
    1      -23.159435   1.000000
    2      -23.158159   1.000000
    3      -23.154520   1.000000
    4      -23.151927   1.000000
    5      -20.078417   1.000000
    6      -20.072164   1.000000
    7      -20.058657   1.000000
    8      -20.056855   1.000000
    9      -20.047964   1.000000
   10      -20.046352   1.000000
   11      -10.450170   1.000000
   12      -10.449366   1.000000
   13       -8.671956   1.000000
   14       -8.665411   1.000000
   15       -4.513158   1.000000
   16       -4.373547   1.000000
   17       -1.247034   1.000000
   18       -1.087542   1.000000
   19       -0.444102   1.000000
   20       -0.086990   1.000000
   21        0.124575   1.000000
   22        0.149689   1.000000
   23        1.333923   1.000000
   24        1.786685   1.000000
   25        2.678225   1.000000
   26        2.812837   1.000000
   27        3.980420   0.000000
   28        4.039476   0.000000
   29        4.852719   0.000000
   30        4.994240   0.000000
   31        6.269792   0.000000
   32        6.288854   0.000000
   33        6.557945   0.000000
   34        6.593460   0.000000
   35        6.763769   0.000000
   36        6.812454   0.000000
   37        7.833964   0.000000
   38        8.098479   0.000000
   39       10.286871   0.000000
   40       10.529368   0.000000
 
  0.4000000E+00  0.0000000E+00  0.0000000E+00  0.1333333E-01
    1      -23.159750   1.000000
    2      -23.159109   1.000000
    3      -23.152232   1.000000
    4      -23.150485   1.000000
    5      -20.075549   1.000000
    6      -20.071855   1.000000
    7      -20.059759   1.000000
    8      -20.059652   1.000000
    9      -20.044165   1.000000
   10      -20.043996   1.000000
   11       -9.791682   1.000000
   12       -9.789923   1.000000
   13       -8.949807   1.000000
   14       -8.944293   1.000000
   15       -4.107451   1.000000
   16       -3.923381   1.000000
   17       -2.740719   1.000000
   18       -2.637838   1.000000
   19       -1.358047   1.000000
   20       -0.807371   1.000000
   21       -0.259183   1.000000
   22        0.241666   1.000000
   23        0.583278   1.000000
   24        0.598643   1.000000
   25        2.247617   1.000000
   26        2.298818   1.000000
   27        4.572026   0.000000
   28        4.599509   0.000000
   29        5.573670   0.000000
   30        5.709940   0.000000
   31        7.310153   0.000000
   32        7.362040   0.000000
   33        7.625588   0.000000
   34        7.673020   0.000000
   35        7.961015   0.000000
   36        7.991514   0.000000
   37        8.553140   0.000000
   38        8.977127   0.000000
   39        9.277318   0.000000
   40        9.306495   0.000000
 
 -0.4000000E+00  0.0000000E+00  0.0000000E+00  0.1333333E-01
    1      -23.159750   1.000000
    2      -23.159109   1.000000
    3      -23.152232   1.000000
    4      -23.150485   1.000000
    5      -20.075549   1.000000
    6      -20.071855   1.000000
    7      -20.059759   1.000000
    8      -20.059652   1.000000
    9      -20.044165   1.000000
   10      -20.043996   1.000000
   11       -9.791682   1.000000
   12       -9.789923   1.000000
   13       -8.949807   1.000000
   14       -8.944292   1.000000
   15       -4.107451   1.000000
   16       -3.923380   1.000000
   17       -2.740719   1.000000
   18       -2.637838   1.000000
   19       -1.358048   1.000000
   20       -0.807371   1.000000
   21       -0.259183   1.000000
   22        0.241666   1.000000
   23        0.583278   1.000000
   24        0.598643   1.000000
   25        2.247617   1.000000
   26        2.298818   1.000000
   27        4.572026   0.000000
   28        4.599509   0.000000
   29        5.573670   0.000000
   30        5.709940   0.000000
   31        7.310153   0.000000
   32        7.362040   0.000000
   33        7.625588   0.000000
   34        7.673020   0.000000
   35        7.961015   0.000000
   36        7.991514   0.000000
   37        8.553140   0.000000
   38        8.977127   0.000000
   39        9.277318   0.000000
   40        9.306495   0.000000
 
 -0.2000000E+00  0.0000000E+00  0.0000000E+00  0.1333333E-01
    1      -23.159435   1.000000
    2      -23.158159   1.000000
    3      -23.154520   1.000000
    4      -23.151927   1.000000
    5      -20.078417   1.000000
    6      -20.072164   1.000000
    7      -20.058657   1.000000
    8      -20.056855   1.000000
    9      -20.047964   1.000000
   10      -20.046352   1.000000
   11      -10.450170   1.000000
   12      -10.449366   1.000000
   13       -8.671956   1.000000
   14       -8.665411   1.000000
   15       -4.513158   1.000000
   16       -4.373547   1.000000
   17       -1.247034   1.000000
   18       -1.087542   1.000000
   19       -0.444102   1.000000
   20       -0.086990   1.000000
   21        0.124575   1.000000
   22        0.149689   1.000000
   23        1.333923   1.000000
   24        1.786685   1.000000
   25        2.678225   1.000000
   26        2.812837   1.000000
   27        3.980420   0.000000
   28        4.039476   0.000000
   29        4.852719   0.000000
   30        4.994240   0.000000
   31        6.269792   0.000000
   32        6.288854   0.000000
   33        6.557945   0.000000
   34        6.593460   0.000000
   35        6.763769   0.000000
   36        6.812454   0.000000
   37        7.833964   0.000000
   38        8.098480   0.000000
   39       10.286871   0.000000
   40       10.529367   0.000000
 
  0.0000000E+00  0.2000000E+00  0.0000000E+00  0.1333333E-01
    1      -23.159435   1.000000
    2      -23.158160   1.000000
    3      -23.154520   1.000000
    4      -23.151927   1.000000
    5      -20.078417   1.000000
    6      -20.072164   1.000000
    7      -20.058658   1.000000
    8      -20.056855   1.000000
    9      -20.047963   1.000000
   10      -20.046352   1.000000
   11      -10.450171   1.000000
   12      -10.449366   1.000000
   13       -8.671956   1.000000
   14       -8.665411   1.000000
   15       -4.513158   1.000000
   16       -4.373546   1.000000
   17       -1.247035   1.000000
   18       -1.087542   1.000000
   19       -0.444103   1.000000
   20       -0.086985   1.000000
   21        0.124576   1.000000
   22        0.149687   1.000000
   23        1.333921   1.000000
   24        1.786688   1.000000
   25        2.678218   1.000000
   26        2.812836   1.000000
   27        3.980422   0.000000
   28        4.039479   0.000000
   29        4.852721   0.000000
   30        4.994237   0.000000
   31        6.269789   0.000000
   32        6.288857   0.000000
   33        6.557945   0.000000
   34        6.593457   0.000000
   35        6.763772   0.000000
   36        6.812454   0.000000
   37        7.833967   0.000000
   38        8.098478   0.000000
   39       10.286868   0.000000
   40       10.529370   0.000000
 
  0.2000000E+00  0.2000000E+00  0.0000000E+00  0.1333333E-01
    1      -23.160331   1.000000
    2      -23.158497   1.000000
    3      -23.153352   1.000000
    4      -23.150319   1.000000
    5      -20.078686   1.000000
    6      -20.070210   1.000000
    7      -20.058626   1.000000
    8      -20.055501   1.000000
    9      -20.048556   1.000000
   10      -20.045509   1.000000
   11      -10.200542   1.000000
   12      -10.199618   1.000000
   13       -8.628283   1.000000
   14       -8.620221   1.000000
   15       -4.495134   1.000000
   16       -4.314906   1.000000
   17       -1.462545   1.000000
   18       -1.452585   1.000000
   19       -1.152379   1.000000
   20       -0.701375   1.000000
   21       -0.358553   1.000000
   22       -0.282383   1.000000
   23        1.106806   1.000000
   24        1.147298   1.000000
   25        1.649967   1.000000
   26        1.851704   1.000000
   27        4.924211   0.000000
   28        4.946539   0.000000
   29        5.459441   0.000000
   30        5.468140   0.000000
   31        6.252244   0.000000
   32        6.578990   0.000000
   33        6.879837   0.000000
   34        6.906061   0.000000
   35        8.229176   0.000000
   36        8.354825   0.000000
   37        8.419903   0.000000
   38        8.918075   0.000000
   39        8.941669   0.000000
   40        9.015422   0.000000
 
  0.4000000E+00  0.2000000E+00  0.0000000E+00  0.1333333E-01
    1      -23.160902   1.000000
    2      -23.159044   1.000000
    3      -23.151369   1.000000
    4      -23.148805   1.000000
    5      -20.077062   1.000000
    6      -20.071016   1.000000
    7      -20.059773   1.000000
    8      -20.056160   1.000000
    9      -20.045025   1.000000
   10      -20.042728   1.000000
   11       -9.571838   1.000000
   12       -9.570251   1.000000
   13       -8.782084   1.000000
   14       -8.776575   1.000000
   15       -4.257530   1.000000
   16       -4.082529   1.000000
   17       -3.101458   1.000000
   18       -3.018894   1.000000
   19       -1.153716   1.000000
   20       -0.662379   1.000000
   21       -0.308998   1.000000
   22       -0.134640   1.000000
   23       -0.010493   1.000000
   24        0.396589   1.000000
   25        0.863495   1.000000
   26        1.395834   1.000000
   27        5.074746   0.000000
   28        5.286869   0.000000
   29        5.665135   0.000000
   30        5.676468   0.000000
   31        6.217771   0.000000
   32        6.663184   0.000000
   33        6.899756   0.000000
   34        7.025436   0.000000
   35        7.749995   0.000000
   36        7.809411   0.000000
   37        8.737066   0.000000
   38        8.959912   0.000000
   39        9.656345   0.000000
   40        9.840680   0.000000
 
 -0.4000000E+00  0.2000000E+00  0.0000000E+00  0.1333333E-01
    1      -23.160902   1.000000
    2      -23.159044   1.000000
    3      -23.151369   1.000000
    4      -23.148805   1.000000
    5      -20.077062   1.000000
    6      -20.071016   1.000000
    7      -20.059773   1.000000
    8      -20.056160   1.000000
    9      -20.045025   1.000000
   10      -20.042728   1.000000
   11       -9.571838   1.000000
   12       -9.570251   1.000000
   13       -8.782084   1.000000
   14       -8.776575   1.000000
   15       -4.257530   1.000000
   16       -4.082529   1.000000
   17       -3.101458   1.000000
   18       -3.018894   1.000000
   19       -1.153716   1.000000
   20       -0.662379   1.000000
   21       -0.308998   1.000000
   22       -0.134640   1.000000
   23       -0.010492   1.000000
   24        0.396589   1.000000
   25        0.863495   1.000000
   26        1.395834   1.000000
   27        5.074746   0.000000
   28        5.286869   0.000000
   29        5.665135   0.000000
   30        5.676468   0.000000
   31        6.217770   0.000000
   32        6.663184   0.000000
   33        6.899756   0.000000
   34        7.025436   0.000000
   35        7.749995   0.000000
   36        7.809411   0.000000
   37        8.737066   0.000000
   38        8.959912   0.000000
   39        9.656345   0.000000
   40        9.840680   0.000000
 
 -0.2000000E+00  0.2000000E+00  0.0000000E+00  0.1333333E-01
    1      -23.160331   1.000000
    2      -23.158497   1.000000
    3      -23.153352   1.000000
    4      -23.150319   1.000000
    5      -20.078686   1.000000
    6      -20.070210   1.000000
    7      -20.058626   1.000000
    8      -20.055501   1.000000
    9      -20.048556   1.000000
   10      -20.045509   1.000000
   11      -10.200542   1.000000
   12      -10.199618   1.000000
   13       -8.628283   1.000000
   14       -8.620221   1.000000
   15       -4.495134   1.000000
   16       -4.314906   1.000000
   17       -1.462545   1.000000
   18       -1.452585   1.000000
   19       -1.152379   1.000000
   20       -0.701375   1.000000
   21       -0.358553   1.000000
   22       -0.282383   1.000000
   23        1.106806   1.000000
   24        1.147298   1.000000
   25        1.649967   1.000000
   26        1.851704   1.000000
   27        4.924211   0.000000
   28        4.946539   0.000000
   29        5.459441   0.000000
   30        5.468139   0.000000
   31        6.252244   0.000000
   32        6.578990   0.000000
   33        6.879837   0.000000
   34        6.906061   0.000000
   35        8.229176   0.000000
   36        8.354825   0.000000
   37        8.419903   0.000000
   38        8.918075   0.000000
   39        8.941669   0.000000
   40        9.015422   0.000000
 
  0.0000000E+00  0.4000000E+00  0.0000000E+00  0.1333333E-01
    1      -23.159750   1.000000
    2      -23.159109   1.000000
    3      -23.152231   1.000000
    4      -23.150485   1.000000
    5      -20.075549   1.000000
    6      -20.071855   1.000000
    7      -20.059760   1.000000
    8      -20.059652   1.000000
    9      -20.044165   1.000000
   10      -20.043995   1.000000
   11       -9.791682   1.000000
   12       -9.789922   1.000000
   13       -8.949807   1.000000
   14       -8.944292   1.000000
   15       -4.107451   1.000000
   16       -3.923379   1.000000
   17       -2.740719   1.000000
   18       -2.637836   1.000000
   19       -1.358050   1.000000
   20       -0.807368   1.000000
   21       -0.259185   1.000000
   22        0.241667   1.000000
   23        0.583279   1.000000
   24        0.598642   1.000000
   25        2.247614   1.000000
   26        2.298816   1.000000
   27        4.572027   0.000000
   28        4.599510   0.000000
   29        5.573672   0.000000
   30        5.709937   0.000000
   31        7.310152   0.000000
   32        7.362038   0.000000
   33        7.625591   0.000000
   34        7.673020   0.000000
   35        7.961014   0.000000
   36        7.991515   0.000000
   37        8.553141   0.000000
   38        8.977130   0.000000
   39        9.277316   0.000000
   40        9.306494   0.000000
 
  0.2000000E+00  0.4000000E+00  0.0000000E+00  0.1333333E-01
    1      -23.160902   1.000000
    2      -23.159044   1.000000
    3      -23.151369   1.000000
    4      -23.148805   1.000000
    5      -20.077062   1.000000
    6      -20.071016   1.000000
    7      -20.059773   1.000000
    8      -20.056161   1.000000
    9      -20.045025   1.000000
   10      -20.042728   1.000000
   11       -9.571838   1.000000
   12       -9.570250   1.000000
   13       -8.782084   1.000000
   14       -8.776575   1.000000
   15       -4.257530   1.000000
   16       -4.082528   1.000000
   17       -3.101459   1.000000
   18       -3.018892   1.000000
   19       -1.153718   1.000000
   20       -0.662378   1.000000
   21       -0.308999   1.000000
   22       -0.134639   1.000000
   23       -0.010493   1.000000
   24        0.396590   1.000000
   25        0.863497   1.000000
   26        1.395830   1.000000
   27        5.074748   0.000000
   28        5.286868   0.000000
   29        5.665136   0.000000
   30        5.676467   0.000000
   31        6.217771   0.000000
   32        6.663186   0.000000
   33        6.899750   0.000000
   34        7.025441   0.000000
   35        7.749993   0.000000
   36        7.809412   0.000000
   37        8.737071   0.000000
   38        8.959907   0.000000
   39        9.656346   0.000000
   40        9.840679   0.000000
 
  0.4000000E+00  0.4000000E+00  0.0000000E+00  0.1333333E-01
    1      -23.161218   1.000000
    2      -23.159930   1.000000
    3      -23.149323   1.000000
    4      -23.147301   1.000000
    5      -20.076890   1.000000
    6      -20.073138   1.000000
    7      -20.058353   1.000000
    8      -20.056282   1.000000
    9      -20.041011   1.000000
   10      -20.040748   1.000000
   11       -9.092040   1.000000
   12       -9.091146   1.000000
   13       -8.513929   1.000000
   14       -8.511130   1.000000
   15       -4.563936   1.000000
   16       -4.461327   1.000000
   17       -4.044806   1.000000
   18       -4.039695   1.000000
   19       -0.707761   1.000000
   20       -0.575276   1.000000
   21       -0.389494   1.000000
   22       -0.343275   1.000000
   23        0.143338   1.000000
   24        0.245949   1.000000
   25        0.431822   1.000000
   26        0.730938   1.000000
   27        4.216599   0.000000
   28        4.244446   0.000000
   29        4.600480   0.000000
   30        4.607503   0.000000
   31        4.963314   0.000000
   32        5.251308   0.000000
   33        5.454362   0.000000
   34        5.457079   0.000000
   35       10.456966   0.000000
   36       10.551667   0.000000
   37       10.583120   0.000000
   38       10.614480   0.000000
   39       11.143182   0.000000
   40       11.355538   0.000000
 
 -0.4000000E+00  0.4000000E+00  0.0000000E+00  0.1333333E-01
    1      -23.161218   1.000000
    2      -23.159930   1.000000
    3      -23.149323   1.000000
    4      -23.147301   1.000000
    5      -20.076890   1.000000
    6      -20.073138   1.000000
    7      -20.058353   1.000000
    8      -20.056282   1.000000
    9      -20.041011   1.000000
   10      -20.040748   1.000000
   11       -9.092040   1.000000
   12       -9.091146   1.000000
   13       -8.513929   1.000000
   14       -8.511130   1.000000
   15       -4.563936   1.000000
   16       -4.461327   1.000000
   17       -4.044806   1.000000
   18       -4.039695   1.000000
   19       -0.707761   1.000000
   20       -0.575276   1.000000
   21       -0.389494   1.000000
   22       -0.343275   1.000000
   23        0.143338   1.000000
   24        0.245949   1.000000
   25        0.431822   1.000000
   26        0.730938   1.000000
   27        4.216600   0.000000
   28        4.244446   0.000000
   29        4.600480   0.000000
   30        4.607503   0.000000
   31        4.963314   0.000000
   32        5.251308   0.000000
   33        5.454362   0.000000
   34        5.457079   0.000000
   35       10.456966   0.000000
   36       10.551667   0.000000
   37       10.583120   0.000000
   38       10.614480   0.000000
   39       11.143182   0.000000
   40       11.355538   0.000000
 
 -0.2000000E+00  0.4000000E+00  0.0000000E+00  0.1333333E-01
    1      -23.160902   1.000000
    2      -23.159044   1.000000
    3      -23.151369   1.000000
    4      -23.148805   1.000000
    5      -20.077062   1.000000
    6      -20.071016   1.000000
    7      -20.059773   1.000000
    8      -20.056161   1.000000
    9      -20.045025   1.000000
   10      -20.042728   1.000000
   11       -9.571838   1.000000
   12       -9.570250   1.000000
   13       -8.782084   1.000000
   14       -8.776575   1.000000
   15       -4.257530   1.000000
   16       -4.082527   1.000000
   17       -3.101459   1.000000
   18       -3.018892   1.000000
   19       -1.153718   1.000000
   20       -0.662378   1.000000
   21       -0.308999   1.000000
   22       -0.134639   1.000000
   23       -0.010493   1.000000
   24        0.396590   1.000000
   25        0.863497   1.000000
   26        1.395830   1.000000
   27        5.074748   0.000000
   28        5.286868   0.000000
   29        5.665136   0.000000
   30        5.676467   0.000000
   31        6.217771   0.000000
   32        6.663186   0.000000
   33        6.899750   0.000000
   34        7.025441   0.000000
   35        7.749993   0.000000
   36        7.809412   0.000000
   37        8.737071   0.000000
   38        8.959907   0.000000
   39        9.656346   0.000000
   40        9.840679   0.000000
 
  0.0000000E+00 -0.4000000E+00  0.0000000E+00  0.1333333E-01
    1      -23.159750   1.000000
    2      -23.159109   1.000000
    3      -23.152231   1.000000
    4      -23.150485   1.000000
    5      -20.075549   1.000000
    6      -20.071855   1.000000
    7      -20.059760   1.000000
    8      -20.059652   1.000000
    9      -20.044165   1.000000
   10      -20.043995   1.000000
   11       -9.791682   1.000000
   12       -9.789922   1.000000
   13       -8.949807   1.000000
   14       -8.944292   1.000000
   15       -4.107451   1.000000
   16       -3.923379   1.000000
   17       -2.740719   1.000000
   18       -2.637836   1.000000
   19       -1.358050   1.000000
   20       -0.807368   1.000000
   21       -0.259185   1.000000
   22        0.241667   1.000000
   23        0.583279   1.000000
   24        0.598642   1.000000
   25        2.247614   1.000000
   26        2.298816   1.000000
   27        4.572027   0.000000
   28        4.599510   0.000000
   29        5.573672   0.000000
   30        5.709937   0.000000
   31        7.310152   0.000000
   32        7.362038   0.000000
   33        7.625591   0.000000
   34        7.673020   0.000000
   35        7.961014   0.000000
   36        7.991515   0.000000
   37        8.553141   0.000000
   38        8.977130   0.000000
   39        9.277317   0.000000
   40        9.306494   0.000000
 
  0.2000000E+00 -0.4000000E+00  0.0000000E+00  0.1333333E-01
    1      -23.160902   1.000000
    2      -23.159044   1.000000
    3      -23.151369   1.000000
    4      -23.148805   1.000000
    5      -20.077062   1.000000
    6      -20.071016   1.000000
    7      -20.059773   1.000000
    8      -20.056161   1.000000
    9      -20.045025   1.000000
   10      -20.042728   1.000000
   11       -9.571838   1.000000
   12       -9.570250   1.000000
   13       -8.782084   1.000000
   14       -8.776575   1.000000
   15       -4.257530   1.000000
   16       -4.082527   1.000000
   17       -3.101459   1.000000
   18       -3.018892   1.000000
   19       -1.153718   1.000000
   20       -0.662378   1.000000
   21       -0.308999   1.000000
   22       -0.134639   1.000000
   23       -0.010493   1.000000
   24        0.396590   1.000000
   25        0.863497   1.000000
   26        1.395830   1.000000
   27        5.074748   0.000000
   28        5.286868   0.000000
   29        5.665136   0.000000
   30        5.676467   0.000000
   31        6.217771   0.000000
   32        6.663186   0.000000
   33        6.899750   0.000000
   34        7.025441   0.000000
   35        7.749993   0.000000
   36        7.809412   0.000000
   37        8.737071   0.000000
   38        8.959907   0.000000
   39        9.656346   0.000000
   40        9.840679   0.000000
 
  0.4000000E+00 -0.4000000E+00  0.0000000E+00  0.1333333E-01
    1      -23.161218   1.000000
    2      -23.159930   1.000000
    3      -23.149323   1.000000
    4      -23.147301   1.000000
    5      -20.076890   1.000000
    6      -20.073138   1.000000
    7      -20.058353   1.000000
    8      -20.056282   1.000000
    9      -20.041011   1.000000
   10      -20.040748   1.000000
   11       -9.092040   1.000000
   12       -9.091146   1.000000
   13       -8.513929   1.000000
   14       -8.511130   1.000000
   15       -4.563936   1.000000
   16       -4.461327   1.000000
   17       -4.044806   1.000000
   18       -4.039695   1.000000
   19       -0.707761   1.000000
   20       -0.575276   1.000000
   21       -0.389494   1.000000
   22       -0.343275   1.000000
   23        0.143338   1.000000
   24        0.245949   1.000000
   25        0.431822   1.000000
   26        0.730938   1.000000
   27        4.216600   0.000000
   28        4.244446   0.000000
   29        4.600480   0.000000
   30        4.607503   0.000000
   31        4.963314   0.000000
   32        5.251308   0.000000
   33        5.454362   0.000000
   34        5.457079   0.000000
   35       10.456966   0.000000
   36       10.551667   0.000000
   37       10.583120   0.000000
   38       10.614480   0.000000
   39       11.143182   0.000000
   40       11.355538   0.000000
 
 -0.4000000E+00 -0.4000000E+00  0.0000000E+00  0.1333333E-01
    1      -23.161218   1.000000
    2      -23.159930   1.000000
    3      -23.149323   1.000000
    4      -23.147301   1.000000
    5      -20.076890   1.000000
    6      -20.073138   1.000000
    7      -20.058353   1.000000
    8      -20.056282   1.000000
    9      -20.041011   1.000000
   10      -20.040748   1.000000
   11       -9.092041   1.000000
   12       -9.091146   1.000000
   13       -8.513929   1.000000
   14       -8.511130   1.000000
   15       -4.563936   1.000000
   16       -4.461327   1.000000
   17       -4.044806   1.000000
   18       -4.039695   1.000000
   19       -0.707761   1.000000
   20       -0.575276   1.000000
   21       -0.389494   1.000000
   22       -0.343275   1.000000
   23        0.143338   1.000000
   24        0.245949   1.000000
   25        0.431822   1.000000
   26        0.730938   1.000000
   27        4.216600   0.000000
   28        4.244446   0.000000
   29        4.600480   0.000000
   30        4.607503   0.000000
   31        4.963314   0.000000
   32        5.251308   0.000000
   33        5.454362   0.000000
   34        5.457079   0.000000
   35       10.456966   0.000000
   36       10.551667   0.000000
   37       10.583120   0.000000
   38       10.614480   0.000000
   39       11.143182   0.000000
   40       11.355538   0.000000
 
 -0.2000000E+00 -0.4000000E+00  0.0000000E+00  0.1333333E-01
    1      -23.160902   1.000000
    2      -23.159044   1.000000
    3      -23.151369   1.000000
    4      -23.148805   1.000000
    5      -20.077062   1.000000
    6      -20.071016   1.000000
    7      -20.059773   1.000000
    8      -20.056161   1.000000
    9      -20.045025   1.000000
   10      -20.042728   1.000000
   11       -9.571838   1.000000
   12       -9.570250   1.000000
   13       -8.782084   1.000000
   14       -8.776575   1.000000
   15       -4.257530   1.000000
   16       -4.082527   1.000000
   17       -3.101459   1.000000
   18       -3.018892   1.000000
   19       -1.153718   1.000000
   20       -0.662378   1.000000
   21       -0.308999   1.000000
   22       -0.134639   1.000000
   23       -0.010493   1.000000
   24        0.396590   1.000000
   25        0.863497   1.000000
   26        1.395830   1.000000
   27        5.074748   0.000000
   28        5.286868   0.000000
   29        5.665136   0.000000
   30        5.676467   0.000000
   31        6.217771   0.000000
   32        6.663186   0.000000
   33        6.899750   0.000000
   34        7.025441   0.000000
   35        7.749993   0.000000
   36        7.809412   0.000000
   37        8.737071   0.000000
   38        8.959907   0.000000
   39        9.656346   0.000000
   40        9.840679   0.000000
 
  0.0000000E+00 -0.2000000E+00  0.0000000E+00  0.1333333E-01
    1      -23.159435   1.000000
    2      -23.158160   1.000000
    3      -23.154520   1.000000
    4      -23.151927   1.000000
    5      -20.078417   1.000000
    6      -20.072164   1.000000
    7      -20.058658   1.000000
    8      -20.056855   1.000000
    9      -20.047963   1.000000
   10      -20.046352   1.000000
   11      -10.450170   1.000000
   12      -10.449366   1.000000
   13       -8.671956   1.000000
   14       -8.665411   1.000000
   15       -4.513159   1.000000
   16       -4.373546   1.000000
   17       -1.247035   1.000000
   18       -1.087542   1.000000
   19       -0.444103   1.000000
   20       -0.086985   1.000000
   21        0.124576   1.000000
   22        0.149687   1.000000
   23        1.333921   1.000000
   24        1.786688   1.000000
   25        2.678218   1.000000
   26        2.812836   1.000000
   27        3.980422   0.000000
   28        4.039479   0.000000
   29        4.852721   0.000000
   30        4.994237   0.000000
   31        6.269789   0.000000
   32        6.288857   0.000000
   33        6.557945   0.000000
   34        6.593457   0.000000
   35        6.763773   0.000000
   36        6.812454   0.000000
   37        7.833967   0.000000
   38        8.098478   0.000000
   39       10.286868   0.000000
   40       10.529368   0.000000
 
  0.2000000E+00 -0.2000000E+00  0.0000000E+00  0.1333333E-01
    1      -23.160331   1.000000
    2      -23.158497   1.000000
    3      -23.153352   1.000000
    4      -23.150319   1.000000
    5      -20.078686   1.000000
    6      -20.070210   1.000000
    7      -20.058626   1.000000
    8      -20.055501   1.000000
    9      -20.048556   1.000000
   10      -20.045509   1.000000
   11      -10.200542   1.000000
   12      -10.199618   1.000000
   13       -8.628283   1.000000
   14       -8.620221   1.000000
   15       -4.495134   1.000000
   16       -4.314906   1.000000
   17       -1.462545   1.000000
   18       -1.452585   1.000000
   19       -1.152379   1.000000
   20       -0.701375   1.000000
   21       -0.358553   1.000000