       N       E                     dE             d eps       ncg     rms          ort
SDA:   1    -0.182170739352E+02   -0.18217E+02   -0.13901E+00  5880   0.348E+00 0.000E+00
DMP:   2    -0.183124010396E+02   -0.95327E-01   -0.74469E-01  5880   0.138E+00 0.127E+00
DMP:   3    -0.183583923652E+02   -0.45991E-01   -0.18185E-01  5880   0.286E-01 0.441E-01
DMP:   4    -0.183700736062E+02   -0.11681E-01   -0.81745E-02  5880   0.152E-01 0.138E-01
DMP:   5    -0.183759325679E+02   -0.58590E-02   -0.48402E-02  5880   0.871E-02 0.889E-02
DMP:   6    -0.183797230668E+02   -0.37905E-02   -0.24754E-02  5880   0.356E-02 0.689E-02
DMP:   7    -0.183816254725E+02   -0.19024E-02   -0.11587E-02  5880   0.161E-02 0.336E-02
DMP:   8    -0.183824991899E+02   -0.87372E-03   -0.49381E-03  5880   0.672E-03 0.147E-02
DMP:   9    -0.183828896129E+02   -0.39042E-03   -0.22946E-03  5880   0.299E-03 0.720E-03
DMP:  10    -0.183830710320E+02   -0.18142E-03   -0.10507E-03  5880   0.136E-03 0.331E-03
DMP:  11    -0.183831562532E+02   -0.85221E-04   -0.46211E-04  5880   0.569E-04 0.154E-03
DMP:  12    -0.183831951397E+02   -0.38887E-04   -0.21683E-04  5880   0.262E-04 0.734E-04
DMP:  13    -0.183832135748E+02   -0.18435E-04   -0.10376E-04  5880   0.127E-04 0.347E-04
DMP:  14    -0.183832227327E+02   -0.91579E-05   -0.48186E-05  5880   0.573E-05 0.165E-04
   1 F= -.18383223E+02 E0= -.18383223E+02  d E =-.315757E-08  mag=     0.0000     0.0000    -0.0000
