 vasp.5.4.4.18Apr17-6-g9f103f2a35 (build Dec 27 2023 19:01:44) complex          
  
 executed on             LinuxIFC date 2020.08.23  19:18:08
 running on   64 total cores
 distrk:  each k-point on   64 cores,    1 groups
 distr:  one band on NCORES_PER_BAND=  16 cores,    4 groups


--------------------------------------------------------------------------------------------------------


 INCAR:
 POTCAR:    PAW_PBE Ga 08Apr2002                  
 POTCAR:    PAW_PBE Bi_d 06Sep2000                
 POTCAR:    PAW_PBE As 22Sep2009                  
 POTCAR:    PAW_PBE Ga 08Apr2002                  
   VRHFIN =Ga: s2p1                                                             
   LEXCH  = PE                                                                  
   EATOM  =    58.8688 eV,    4.3267 Ry                                         
                                                                                
   TITEL  = PAW_PBE Ga 08Apr2002                                                
   LULTRA =        F    use ultrasoft PP ?                                      
   IUNSCR =        1    unscreen: 0-lin 1-nonlin 2-no                           
   RPACOR =    2.170    partial core radius                                     
   POMASS =   69.723; ZVAL   =    3.000    mass and valenz                      
   RCORE  =    2.600    outmost cutoff radius                                   
   RWIGS  =    2.650; RWIGS  =    1.402    wigner-seitz radius (au A)           
   ENMAX  =  134.678; ENMIN  =  101.009 eV                                      
   ICORE  =        3    local potential                                         
   LCOR   =        T    correct aug charges                                     
   LPAW   =        T    paw PP                                                  
   EAUG   =  320.264                                                            
   DEXC   =    0.000                                                            
   RMAX   =    2.658    core radius for proj-oper                               
   RAUG   =    1.300    factor for augmentation sphere                          
   RDEP   =    2.684    radius for radial grids                                 
   RDEPT  =    2.308    core radius for aug-charge                              
                                                                                
   Atomic configuration                                                         
   10 entries                                                                   
     n  l   j            E        occ.                                          
     1  0  0.50    -10228.7830   2.0000                                         
     2  0  0.50     -1262.1604   2.0000                                         
     2  1  1.50     -1098.6333   6.0000                                         
     3  0  0.50      -148.1110   2.0000                                         
     3  1  1.50       -98.8436   6.0000                                         
     3  2  2.50       -19.1549  10.0000                                         
     4  0  0.50        -8.9483   2.0000                                         
     4  1  0.50        -2.5791   1.0000                                         
     4  2  1.50         5.4423   0.0000                                         
     4  3  2.50        -2.7416   0.0000                                         
   Description                                                                  
     l       E           TYP  RCUT    TYP  RCUT                                 
     0     -8.9483097     23  2.600                                             
     0     -5.8232215     23  2.600                                             
     1     -2.5790793     23  2.600                                             
     1      5.2230115     23  2.600                                             
     2      1.3605826     23  2.600                                             
     3     -1.3605826      7  2.600                                             
  local pseudopotential read in
  partial core-charges read in
  partial kinetic energy density read in
  atomic valenz-charges read in
  non local Contribution for L=           0  read in
    real space projection operators read in
  non local Contribution for L=           0  read in
    real space projection operators read in
  non local Contribution for L=           1  read in
    real space projection operators read in
  non local Contribution for L=           1  read in
    real space projection operators read in
  non local Contribution for L=           2  read in
    real space projection operators read in
    PAW grid and wavefunctions read in
 
   number of l-projection  operators is LMAX  =           5
   number of lm-projection operators is LMMAX =          13
 
 POTCAR:    PAW_PBE Bi_d 06Sep2000                
   VRHFIN =Bi:                                                                  
   LEXCH  = PE                                                                  
   EATOM  =  1959.2045 eV,  143.9975 Ry                                         
                                                                                
   TITEL  = PAW_PBE Bi_d 06Sep2000                                              
   LULTRA =        F    use ultrasoft PP ?                                      
   IUNSCR =        1    unscreen: 0-lin 1-nonlin 2-no                           
   RPACOR =    2.200    partial core radius                                     
   POMASS =  208.980; ZVAL   =   15.000    mass and valenz                      
   RCORE  =    2.500    outmost cutoff radius                                   
   RWIGS  =    3.090; RWIGS  =    1.635    wigner-seitz radius (au A)           
   ENMAX  =  242.839; ENMIN  =  182.129 eV                                      
   ICORE  =        3    local potential                                         
   LCOR   =        T    correct aug charges                                     
   LPAW   =        T    paw PP                                                  
   EAUG   =  442.899                                                            
   DEXC   =    0.000                                                            
   RMAX   =    2.551    core radius for proj-oper                               
   RAUG   =    1.300    factor for augmentation sphere                          
   RDEP   =    2.650    radius for radial grids                                 
   RDEPT  =    2.039    core radius for aug-charge                              
                                                                                
   Atomic configuration                                                         
   16 entries                                                                   
     n  l   j            E        occ.                                          
     1  0  0.50    -90639.6581   2.0000                                         
     2  0  0.50    -16282.4666   2.0000                                         
     2  1  1.50    -13922.8286   6.0000                                         
     3  0  0.50     -3930.4763   2.0000                                         
     3  1  1.50     -3256.7013   6.0000                                         
     3  2  2.50     -2581.6168  10.0000                                         
     4  0  0.50      -902.2614   2.0000                                         
     4  1  1.50      -681.5915   6.0000                                         
     4  2  2.50      -429.8249  10.0000                                         
     4  3  3.50      -152.6004  14.0000                                         
     5  0  0.50      -157.7156   2.0000                                         
     5  1  1.50       -95.8054   6.0000                                         
     5  2  2.50       -27.0806  10.0000                                         
     6  0  0.50       -14.4732   2.0000                                         
     6  1  1.50        -4.5702   3.0000                                         
     5  3  2.50        -2.7212   0.0000                                         
   Description                                                                  
     l       E           TYP  RCUT    TYP  RCUT                                 
     2    -27.0805982     23  2.500                                             
     2     -1.3605826     23  2.500                                             
     0    -14.4732271     23  2.500                                             
     0      6.8029130     23  2.500                                             
     1     -4.5701651     23  2.500                                             
     1     13.6058260     23  2.500                                             
     3     -1.3605826      7  2.500                                             
  local pseudopotential read in
  partial core-charges read in
  partial kinetic energy density read in
  atomic valenz-charges read in
  non local Contribution for L=           2  read in
    real space projection operators read in
  non local Contribution for L=           2  read in
    real space projection operators read in
  non local Contribution for L=           0  read in
    real space projection operators read in
  non local Contribution for L=           0  read in
    real space projection operators read in
  non local Contribution for L=           1  read in
    real space projection operators read in
  non local Contribution for L=           1  read in
    real space projection operators read in
    PAW grid and wavefunctions read in
 
   number of l-projection  operators is LMAX  =           6
   number of lm-projection operators is LMMAX =          18
 
 POTCAR:    PAW_PBE As 22Sep2009                  
   VRHFIN =As: s2p3                                                             
   LEXCH  = PE                                                                  
   EATOM  =   170.1867 eV,   12.5084 Ry                                         
                                                                                
   TITEL  = PAW_PBE As 22Sep2009                                                
   LULTRA =        F    use ultrasoft PP ?                                      
   IUNSCR =        1    unscreen: 0-lin 1-nonlin 2-no                           
   RPACOR =    1.900    partial core radius                                     
   POMASS =   74.922; ZVAL   =    5.000    mass and valenz                      
   RCORE  =    2.100    outmost cutoff radius                                   
   RWIGS  =    2.300; RWIGS  =    1.217    wigner-seitz radius (au A)           
   ENMAX  =  208.702; ENMIN  =  156.526 eV                                      
   ICORE  =        3    local potential                                         
   LCOR   =        T    correct aug charges                                     
   LPAW   =        T    paw PP                                                  
   EAUG   =  462.758                                                            
   DEXC   =    0.000                                                            
   RMAX   =    2.144    core radius for proj-oper                               
   RAUG   =    1.300    factor for augmentation sphere                          
   RDEP   =    2.140    radius for radial grids                                 
   RDEPT  =    1.956    core radius for aug-charge                              
                                                                                
   Atomic configuration                                                         
   10 entries                                                                   
     n  l   j            E        occ.                                          
     1  0  0.50    -11718.0418   2.0000                                         
     2  0  0.50     -1486.5454   2.0000                                         
     2  1  1.50     -1303.3889   6.0000                                         
     3  0  0.50      -190.2849   2.0000                                         
     3  1  1.50      -133.6555   6.0000                                         
     3  2  2.50       -40.6443  10.0000                                         
     4  0  0.50       -14.4936   2.0000                                         
     4  1  0.50        -5.1947   3.0000                                         
     4  2  1.50        -5.4423   0.0000                                         
     4  3  2.50        -5.4423   0.0000                                         
   Description                                                                  
     l       E           TYP  RCUT    TYP  RCUT                                 
     0    -14.4935570     23  2.100                                             
     0    -11.9212055     23  2.100                                             
     1     -5.1947127     23  2.100                                             
     1     27.2116520     23  2.100                                             
     2     -5.4423304     23  2.100                                             
     3     -1.3605826      7  2.100                                             
  local pseudopotential read in
  partial core-charges read in
  partial kinetic energy density read in
  atomic valenz-charges read in
  non local Contribution for L=           0  read in
    real space projection operators read in
  non local Contribution for L=           0  read in
    real space projection operators read in
  non local Contribution for L=           1  read in
    real space projection operators read in
  non local Contribution for L=           1  read in
    real space projection operators read in
  non local Contribution for L=           2  read in
    real space projection operators read in
    PAW grid and wavefunctions read in
 
   number of l-projection  operators is LMAX  =           5
   number of lm-projection operators is LMMAX =          13
 

 ----------------------------------------------------------------------------- 
|                                                                             |
|  ADVICE TO THIS USER RUNNING 'VASP/VAMP'   (HEAR YOUR MASTER'S VOICE ...):  |
|                                                                             |
|      You have a (more or less) 'small supercell' and for smaller cells      |
|      it is recommended  to use the reciprocal-space projection scheme!      |
|      The real space optimization is not  efficient for small cells and it   |
|      is also less accurate ...                                              |
|      Therefore set LREAL=.FALSE. in the  INCAR file                         |
|                                                                             |
 ----------------------------------------------------------------------------- 

 Optimization of the real space projectors (new method)

 maximal supplied QI-value         = 14.36
 optimisation between [QCUT,QGAM] = [ 11.35, 22.84] = [ 36.05,146.02] Ry 
 Optimized for a Real-space Cutoff    1.43 Angstroem

   l    n(q)    QCUT    max X(q) W(low)/X(q) W(high)/X(q)  e(spline) 
   0     10    11.346    81.156    0.45E-04    0.70E-04    0.62E-07
   0     10    11.346    65.205    0.45E-04    0.72E-04    0.63E-07
   1      9    11.346    44.874    0.15E-03    0.63E-04    0.19E-06
   1      9    11.346    25.010    0.16E-03    0.59E-04    0.19E-06
   2      9    11.346     5.217    0.61E-04    0.14E-03    0.62E-07
 Optimization of the real space projectors (new method)

 maximal supplied QI-value         = 15.12
 optimisation between [QCUT,QGAM] = [ 11.34, 22.83] = [ 36.00,145.93] Ry 
 Optimized for a Real-space Cutoff    1.39 Angstroem

   l    n(q)    QCUT    max X(q) W(low)/X(q) W(high)/X(q)  e(spline) 
   2      9    11.338     4.360    0.29E-04    0.91E-04    0.84E-07
   2      9    11.338     7.451    0.91E-04    0.83E-04    0.19E-06
   0      9    11.338    21.015    0.59E-04    0.59E-05    0.80E-07
   0      9    11.338     9.183    0.87E-04    0.88E-05    0.12E-06
   1      9    11.338    25.904    0.84E-04    0.19E-03    0.11E-06
   1      9    11.338    13.553    0.73E-04    0.17E-03    0.10E-06
 Optimization of the real space projectors (new method)

 maximal supplied QI-value         = 17.95
 optimisation between [QCUT,QGAM] = [ 11.31, 22.80] = [ 35.82,145.56] Ry 
 Optimized for a Real-space Cutoff    1.31 Angstroem

   l    n(q)    QCUT    max X(q) W(low)/X(q) W(high)/X(q)  e(spline) 
   0      9    11.310   117.213    0.44E-04    0.60E-04    0.75E-07
   0      9    11.310    98.411    0.42E-04    0.60E-04    0.74E-07
   1      8    11.310    10.093    0.11E-03    0.13E-03    0.10E-06
   1      8    11.310     5.228    0.97E-04    0.12E-03    0.93E-07
   2      8    11.310     4.067    0.36E-04    0.60E-04    0.60E-07
  PAW_PBE Ga 08Apr2002                  :
 energy of atom  1       EATOM=  -58.8688
 kinetic energy error for atom=    0.0000 (will be added to EATOM!!)
  PAW_PBE Bi_d 06Sep2000                :
 energy of atom  2       EATOM=-1959.2045
 kinetic energy error for atom=    0.0049 (will be added to EATOM!!)
  PAW_PBE As 22Sep2009                  :
 energy of atom  3       EATOM= -170.1867
 kinetic energy error for atom=    0.0005 (will be added to EATOM!!)
 
 
 POSCAR: Ga2 Bi1 As1                             
  positions in direct lattice
  No initial velocities read in
 exchange correlation table for  LEXCH =        8
   RHO(1)=    0.500       N(1)  =     2000
   RHO(2)=  100.500       N(2)  =     4000
 


--------------------------------------------------------------------------------------------------------


 ion  position               nearest neighbor table
   1  0.500  0.000  0.726-   4 2.56   4 2.56   3 2.73   3 2.73
   2  0.000  0.500  0.274-   4 2.56   4 2.56   3 2.73   3 2.73
   3  0.000  0.000  0.000-   1 2.73   1 2.73   2 2.73   2 2.73
   4  0.500  0.500  0.500-   2 2.56   2 2.56   1 2.56   1 2.56
 
  LATTYP: Found a simple tetragonal cell.
 ALAT       =     4.3001408577
 C/A-ratio  =     1.4292232167
  
  Lattice vectors:
  
 A1 = (   4.3001408577,   0.0000000000,   0.0000000000)
 A2 = (   0.0000000000,   4.3001408577,   0.0000000000)
 A3 = (   0.0000000000,   0.0000000000,   6.1458611488)


Analysis of symmetry for initial positions (statically):
=====================================================================
 Subroutine PRICEL returns:
 Original cell was already a primitive cell.
 

 Routine SETGRP: Setting up the symmetry group for a 
 simple tetragonal supercell.


 Subroutine GETGRP returns: Found  8 space group operations
 (whereof  8 operations were pure point group operations)
 out of a pool of 16 trial point group operations.


The static configuration has the point symmetry D_2d.


Analysis of symmetry for dynamics (positions and initial velocities):
=====================================================================
 Subroutine PRICEL returns:
 Original cell was already a primitive cell.
 

 Routine SETGRP: Setting up the symmetry group for a 
 simple tetragonal supercell.


 Subroutine GETGRP returns: Found  8 space group operations
 (whereof  8 operations were pure point group operations)
 out of a pool of 16 trial point group operations.


The dynamic configuration has the point symmetry D_2d.


Analysis of structural, dynamic, and magnetic symmetry:
=====================================================================
 Subroutine PRICEL returns:
 Original cell was already a primitive cell.
 

 Routine SETGRP: Setting up the symmetry group for a 
 simple tetragonal supercell.


 Subroutine GETGRP returns: Found  1 space group operations
 (whereof  1 operations were pure point group operations)
 out of a pool of 16 trial point group operations.


The (compounded) configuration has the point symmetry C_1 .


 Subroutine INISYM returns: Found  1 space group operations
 (whereof  1 operations are pure point group operations),
 and found     1 'primitive' translations

 
 
 KPOINTS: Automatically generated mesh            
  k-points in reciprocal lattice
Space group operators:
 irot       det(A)        alpha          n_x          n_y          n_z        tau_x        tau_y        tau_z
    1     1.000000     0.000001     1.000000     0.000000     0.000000     0.000000     0.000000     0.000000

 ----------------------------------------------------------------------------- 
|                                                                             |
|           W    W    AA    RRRRR   N    N  II  N    N   GGGG   !!!           |
|           W    W   A  A   R    R  NN   N  II  NN   N  G    G  !!!           |
|           W    W  A    A  R    R  N N  N  II  N N  N  G       !!!           |
|           W WW W  AAAAAA  RRRRR   N  N N  II  N  N N  G  GGG   !            |
|           WW  WW  A    A  R   R   N   NN  II  N   NN  G    G                |
|           W    W  A    A  R    R  N    N  II  N    N   GGGG   !!!           |
|                                                                             |
|      Your generating k-point grid is not commensurate to the symmetry       |
|      of the lattice.  This can cause   slow convergence with respect        |
|      to k-points for HF type calculations                                   |
|      suggested SOLUTIONS:                                                   |
|       ) if not already the case, use automatic k-point generation           |
|       ) shift your grid to Gamma (G) (e.g. required for hex or fcc lattice) |
|                                                                             |
 ----------------------------------------------------------------------------- 

 
 Subroutine IBZKPT_HF returns following result:
 ==============================================
 
 Found    147 k-points in 1st BZ
 the following    147 k-points will be used (e.g. in the exchange kernel)
 Following reciprocal coordinates:   # in IRBZ
  0.000000  0.000000  0.000000    0.01333333   1 t-inv F
  0.200000  0.000000  0.000000    0.01333333   2 t-inv F
  0.400000  0.000000  0.000000    0.01333333   3 t-inv F
 -0.400000  0.000000  0.000000    0.01333333   4 t-inv F
 -0.200000  0.000000  0.000000    0.01333333   5 t-inv F
  0.000000  0.200000  0.000000    0.01333333   6 t-inv F
  0.200000  0.200000  0.000000    0.01333333   7 t-inv F
  0.400000  0.200000  0.000000    0.01333333   8 t-inv F
 -0.400000  0.200000  0.000000    0.01333333   9 t-inv F
 -0.200000  0.200000  0.000000    0.01333333  10 t-inv F
  0.000000  0.400000  0.000000    0.01333333  11 t-inv F
  0.200000  0.400000  0.000000    0.01333333  12 t-inv F
  0.400000  0.400000  0.000000    0.01333333  13 t-inv F
 -0.400000  0.400000  0.000000    0.01333333  14 t-inv F
 -0.200000  0.400000  0.000000    0.01333333  15 t-inv F
  0.000000 -0.400000  0.000000    0.01333333  16 t-inv F
  0.200000 -0.400000  0.000000    0.01333333  17 t-inv F
  0.400000 -0.400000  0.000000    0.01333333  18 t-inv F
 -0.400000 -0.400000  0.000000    0.01333333  19 t-inv F
 -0.200000 -0.400000  0.000000    0.01333333  20 t-inv F
  0.000000 -0.200000  0.000000    0.01333333  21 t-inv F
  0.200000 -0.200000  0.000000    0.01333333  22 t-inv F
  0.400000 -0.200000  0.000000    0.01333333  23 t-inv F
 -0.400000 -0.200000  0.000000    0.01333333  24 t-inv F
 -0.200000 -0.200000  0.000000    0.01333333  25 t-inv F
  0.000000  0.000000  0.333333    0.01333333  26 t-inv F
  0.200000  0.000000  0.333333    0.01333333  27 t-inv F
  0.400000  0.000000  0.333333    0.01333333  28 t-inv F
 -0.400000  0.000000  0.333333    0.01333333  29 t-inv F
 -0.200000  0.000000  0.333333    0.01333333  30 t-inv F
  0.000000  0.200000  0.333333    0.01333333  31 t-inv F
  0.200000  0.200000  0.333333    0.01333333  32 t-inv F
  0.400000  0.200000  0.333333    0.01333333  33 t-inv F
 -0.400000  0.200000  0.333333    0.01333333  34 t-inv F
 -0.200000  0.200000  0.333333    0.01333333  35 t-inv F
  0.000000  0.400000  0.333333    0.01333333  36 t-inv F
  0.200000  0.400000  0.333333    0.01333333  37 t-inv F
  0.400000  0.400000  0.333333    0.01333333  38 t-inv F
 -0.400000  0.400000  0.333333    0.01333333  39 t-inv F
 -0.200000  0.400000  0.333333    0.01333333  40 t-inv F
  0.000000 -0.400000  0.333333    0.01333333  41 t-inv F
  0.200000 -0.400000  0.333333    0.01333333  42 t-inv F
  0.400000 -0.400000  0.333333    0.01333333  43 t-inv F
 -0.400000 -0.400000  0.333333    0.01333333  44 t-inv F
 -0.200000 -0.400000  0.333333    0.01333333  45 t-inv F
  0.000000 -0.200000  0.333333    0.01333333  46 t-inv F
  0.200000 -0.200000  0.333333    0.01333333  47 t-inv F
  0.400000 -0.200000  0.333333    0.01333333  48 t-inv F
 -0.400000 -0.200000  0.333333    0.01333333  49 t-inv F
 -0.200000 -0.200000  0.333333    0.01333333  50 t-inv F
  0.000000  0.000000 -0.333333    0.01333333  51 t-inv F
  0.200000  0.000000 -0.333333    0.01333333  52 t-inv F
  0.400000  0.000000 -0.333333    0.01333333  53 t-inv F
 -0.400000  0.000000 -0.333333    0.01333333  54 t-inv F
 -0.200000  0.000000 -0.333333    0.01333333  55 t-inv F
  0.000000  0.200000 -0.333333    0.01333333  56 t-inv F
  0.200000  0.200000 -0.333333    0.01333333  57 t-inv F
  0.400000  0.200000 -0.333333    0.01333333  58 t-inv F
 -0.400000  0.200000 -0.333333    0.01333333  59 t-inv F
 -0.200000  0.200000 -0.333333    0.01333333  60 t-inv F
  0.000000  0.400000 -0.333333    0.01333333  61 t-inv F
  0.200000  0.400000 -0.333333    0.01333333  62 t-inv F
  0.400000  0.400000 -0.333333    0.01333333  63 t-inv F
 -0.400000  0.400000 -0.333333    0.01333333  64 t-inv F
 -0.200000  0.400000 -0.333333    0.01333333  65 t-inv F
  0.000000 -0.400000 -0.333333    0.01333333  66 t-inv F
  0.200000 -0.400000 -0.333333    0.01333333  67 t-inv F
  0.400000 -0.400000 -0.333333    0.01333333  68 t-inv F
 -0.400000 -0.400000 -0.333333    0.01333333  69 t-inv F
 -0.200000 -0.400000 -0.333333    0.01333333  70 t-inv F
  0.000000 -0.200000 -0.333333    0.01333333  71 t-inv F
  0.200000 -0.200000 -0.333333    0.01333333  72 t-inv F
  0.400000 -0.200000 -0.333333    0.01333333  73 t-inv F
 -0.400000 -0.200000 -0.333333    0.01333333  74 t-inv F
 -0.200000 -0.200000 -0.333333    0.01333333  75 t-inv F
  0.500000  0.500000  0.000000    0.00000000  76 t-inv F
  0.485714  0.485714  0.000000    0.00000000  77 t-inv F
  0.471429  0.471429  0.000000    0.00000000  78 t-inv F
  0.457143  0.457143  0.000000    0.00000000  79 t-inv F
  0.442857  0.442857  0.000000    0.00000000  80 t-inv F
  0.428571  0.428571  0.000000    0.00000000  81 t-inv F
  0.414286  0.414286  0.000000    0.00000000  82 t-inv F
  0.400000  0.400000  0.000000    0.00000000  83 t-inv F
  0.385714  0.385714  0.000000    0.00000000  84 t-inv F
  0.371429  0.371429  0.000000    0.00000000  85 t-inv F
  0.357143  0.357143  0.000000    0.00000000  86 t-inv F
  0.342857  0.342857  0.000000    0.00000000  87 t-inv F
  0.328571  0.328571  0.000000    0.00000000  88 t-inv F
  0.314286  0.314286  0.000000    0.00000000  89 t-inv F
  0.300000  0.300000  0.000000    0.00000000  90 t-inv F
  0.285714  0.285714  0.000000    0.00000000  91 t-inv F
  0.271429  0.271429  0.000000    0.00000000  92 t-inv F
  0.257143  0.257143  0.000000    0.00000000  93 t-inv F
  0.242857  0.242857  0.000000    0.00000000  94 t-inv F
  0.228571  0.228571  0.000000    0.00000000  95 t-inv F
  0.214286  0.214286  0.000000    0.00000000  96 t-inv F
  0.200000  0.200000  0.000000    0.00000000  97 t-inv F
  0.185714  0.185714  0.000000    0.00000000  98 t-inv F
  0.171429  0.171429  0.000000    0.00000000  99 t-inv F
  0.157143  0.157143  0.000000    0.00000000 100 t-inv F
  0.142857  0.142857  0.000000    0.00000000 101 t-inv F
  0.128571  0.128571  0.000000    0.00000000 102 t-inv F
  0.114286  0.114286  0.000000    0.00000000 103 t-inv F
  0.100000  0.100000  0.000000    0.00000000 104 t-inv F
  0.085714  0.085714  0.000000    0.00000000 105 t-inv F
  0.071429  0.071429  0.000000    0.00000000 106 t-inv F
  0.057143  0.057143  0.000000    0.00000000 107 t-inv F
  0.042857  0.042857  0.000000    0.00000000 108 t-inv F
  0.028571  0.028571  0.000000    0.00000000 109 t-inv F
  0.014286  0.014286  0.000000    0.00000000 110 t-inv F
  0.000000  0.000000  0.000000    0.00000000 111 t-inv F
  0.000000  0.000000  0.000000    0.00000000 112 t-inv F
  0.000000  0.000000  0.014286    0.00000000 113 t-inv F
  0.000000  0.000000  0.028571    0.00000000 114 t-inv F
  0.000000  0.000000  0.042857    0.00000000 115 t-inv F
  0.000000  0.000000  0.057143    0.00000000 116 t-inv F
  0.000000  0.000000  0.071429    0.00000000 117 t-inv F
  0.000000  0.000000  0.085714    0.00000000 118 t-inv F
  0.000000  0.000000  0.100000    0.00000000 119 t-inv F
  0.000000  0.000000  0.114286    0.00000000 120 t-inv F
  0.000000  0.000000  0.128571    0.00000000 121 t-inv F
  0.000000  0.000000  0.142857    0.00000000 122 t-inv F
  0.000000  0.000000  0.157143    0.00000000 123 t-inv F
  0.000000  0.000000  0.171429    0.00000000 124 t-inv F
  0.000000  0.000000  0.185714    0.00000000 125 t-inv F
  0.000000  0.000000  0.200000    0.00000000 126 t-inv F
  0.000000  0.000000  0.214286    0.00000000 127 t-inv F
  0.000000  0.000000  0.228571    0.00000000 128 t-inv F
  0.000000  0.000000  0.242857    0.00000000 129 t-inv F
  0.000000  0.000000  0.257143    0.00000000 130 t-inv F
  0.000000  0.000000  0.271429    0.00000000 131 t-inv F
  0.000000  0.000000  0.285714    0.00000000 132 t-inv F
  0.000000  0.000000  0.300000    0.00000000 133 t-inv F
  0.000000  0.000000  0.314286    0.00000000 134 t-inv F
  0.000000  0.000000  0.328571    0.00000000 135 t-inv F
  0.000000  0.000000  0.342857    0.00000000 136 t-inv F
  0.000000  0.000000  0.357143    0.00000000 137 t-inv F
  0.000000  0.000000  0.371429    0.00000000 138 t-inv F
  0.000000  0.000000  0.385714    0.00000000 139 t-inv F
  0.000000  0.000000  0.400000    0.00000000 140 t-inv F
  0.000000  0.000000  0.414286    0.00000000 141 t-inv F
  0.000000  0.000000  0.428571    0.00000000 142 t-inv F
  0.000000  0.000000  0.442857    0.00000000 143 t-inv F
  0.000000  0.000000  0.457143    0.00000000 144 t-inv F
  0.000000  0.000000  0.471429    0.00000000 145 t-inv F
  0.000000  0.000000  0.485714    0.00000000 146 t-inv F
  0.000000  0.000000  0.500000    0.00000000 147 t-inv F


--------------------------------------------------------------------------------------------------------




 Dimension of arrays:
   k-points           NKPTS =    147   k-points in BZ     NKDIM =    147   number of bands    NBANDS=     40
   number of dos      NEDOS =    301   number of ions     NIONS =      4
   non local maximal  LDIM  =      6   non local SUM 2l+1 LMDIM =     18
   total plane-waves  NPLWV =  49152
   max r-space proj   IRMAX =   5363   max aug-charges    IRDMAX=  31281
   dimension x,y,z NGX =    32 NGY =   32 NGZ =   48
   dimension x,y,z NGXF=    64 NGYF=   64 NGZF=   96
   support grid    NGXF=    64 NGYF=   64 NGZF=   96
   ions per type =               2   1   1
   NGX,Y,Z   is equivalent  to a cutoff of  12.37, 12.37, 12.98 a.u.
   NGXF,Y,Z  is equivalent  to a cutoff of  24.74, 24.74, 25.97 a.u.

 SYSTEM =  Ga2BiAs                                 
 POSCAR =  Ga2 Bi1 As1                             

 Startparameter for this run:
   NWRITE =      2    write-flag & timer
   PREC   = accura    normal or accurate (medium, high low for compatibility)
   ISTART =      1    job   : 0-new  1-cont  2-samecut
   ICHARG =      2    charge: 1-file 2-atom 10-const
   ISPIN  =      1    spin polarized calculation?
   LNONCOLLINEAR =      T non collinear calculations
   LSORBIT =      T    spin-orbit coupling
   INIWAV =      1    electr: 0-lowe 1-rand  2-diag
   LASPH  =      F    aspherical Exc in radial PAW
   METAGGA=      F    non-selfconsistent MetaGGA calc.

 Electronic Relaxation 1
   ENCUT  =  500.0 eV  36.75 Ry    6.06 a.u.   7.84  7.84 11.21*2*pi/ulx,y,z
   ENINI  =  500.0     initial cutoff
   ENAUG  =  462.8 eV  augmentation charge cutoff
   NELM   =     60;   NELMIN=  2; NELMDL=  0     # of ELM steps 
   EDIFF  = 0.1E-04   stopping-criterion for ELM
   LREAL  =      T    real-space projection
   NLSPLINE    = F    spline interpolate recip. space projectors
   LCOMPAT=      F    compatible to vasp.4.4
   GGA_COMPAT  = T    GGA compatible to vasp.4.4-vasp.4.6
   LMAXPAW     = -100 max onsite density
   LMAXMIX     =    2 max onsite mixed and CHGCAR
   VOSKOWN=      0    Vosko Wilk Nusair interpolation
   ROPT   =   -0.00025  -0.00025  -0.00025
 Ionic relaxation
   EDIFFG = -.1E-01   stopping-criterion for IOM
   NSW    =      0    number of steps for IOM
   NBLOCK =      1;   KBLOCK =      1    inner block; outer block 
   IBRION =     -1    ionic relax: 0-MD 1-quasi-New 2-CG
   NFREE  =      0    steps in history (QN), initial steepest desc. (CG)
   ISIF   =      0    stress and relaxation
   IWAVPR =     10    prediction:  0-non 1-charg 2-wave 3-comb
   ISYM   =      3    0-nonsym 1-usesym 2-fastsym
   LCORR  =      T    Harris-Foulkes like correction to forces

   POTIM  = 0.5000    time-step for ionic-motion
   TEIN   =    0.0    initial temperature
   TEBEG  =    0.0;   TEEND  =   0.0 temperature during run
   SMASS  =  -3.00    Nose mass-parameter (am)
   estimated Nose-frequenzy (Omega)   =  0.10E-29 period in steps =****** mass=  -0.423E-27a.u.
   SCALEE = 1.0000    scale energy and forces
   NPACO  =    256;   APACO  = 16.0  distance and # of slots for P.C.
   PSTRESS=    0.0 pullay stress

  Mass of Ions in am
   POMASS =  69.72208.98 74.92
  Ionic Valenz
   ZVAL   =   3.00 15.00  5.00
  Atomic Wigner-Seitz radii
   RWIGS  =  -1.00 -1.00 -1.00
  virtual crystal weights 
   VCA    =   1.00  1.00  1.00
   NELECT =      26.0000    total number of electrons
   NUPDOWN=      -1.0000    fix difference up-down

 DOS related values:
   EMIN   =  10.00;   EMAX   =-10.00  energy-range for DOS
   EFERMI =   0.00
   ISMEAR =     0;   SIGMA  =   0.05  broadening in eV -4-tet -1-fermi 0-gaus

 Electronic relaxation 2 (details)
   IALGO  =     53    algorithm
   LDIAG  =      T    sub-space diagonalisation (order eigenvalues)
   LSUBROT=      F    optimize rotation matrix (better conditioning)
   TURBO    =      0    0=normal 1=particle mesh
   IRESTART =      0    0=no restart 2=restart with 2 vectors
   NREBOOT  =      0    no. of reboots
   NMIN     =      0    reboot dimension
   EREF     =   0.00    reference energy to select bands
   IMIX   =      4    mixing-type and parameters
     AMIX     =   0.40;   BMIX     =  1.00
     AMIX_MAG =   1.60;   BMIX_MAG =  1.00
     AMIN     =   0.10
     WC   =   100.;   INIMIX=   1;  MIXPRE=   1;  MAXMIX= -45

 Intra band minimization:
   WEIMIN = 0.0000     energy-eigenvalue tresh-hold
   EBREAK =  0.63E-07  absolut break condition
   DEPER  =   0.30     relativ break condition  

   TIME   =   0.40     timestep for ELM

  volume/ion in A,a.u.               =      28.41       191.73
  Fermi-wavevector in a.u.,A,eV,Ry     =   1.001267  1.892120 13.640326  1.002536
  Thomas-Fermi vector in A             =   2.133678
 
 Write flags
   LWAVE        =      F    write WAVECAR
   LDOWNSAMPLE  =      F    k-point downsampling of WAVECAR
   LCHARG       =      F    write CHGCAR
   LVTOT        =      F    write LOCPOT, total local potential
   LVHAR        =      F    write LOCPOT, Hartree potential only
   LELF         =      F    write electronic localiz. function (ELF)
   LORBIT       =      0    0 simple, 1 ext, 2 COOP (PROOUT), +10 PAW based schemes


 Dipole corrections
   LMONO  =      F    monopole corrections only (constant potential shift)
   LDIPOL =      F    correct potential (dipole corrections)
   IDIPOL =      0    1-x, 2-y, 3-z, 4-all directions 
   EPSILON=  1.0000000 bulk dielectric constant

 Exchange correlation treatment:
   GGA     =    PE    GGA type
   LEXCH   =     8    internal setting for exchange type
   VOSKOWN=      0    Vosko Wilk Nusair interpolation
   EXXOEP  =     0    0=HF, 1=EXX-LHF (local Hartree Fock) 2=EXX OEP
   LHFCALC =     T    Hartree Fock is set to
   LSYMGRAD=     F    symmetrize gradient (conserves proper symmetry)
   PRECFOCK=normal    Normal, Fast or Accurate (Low or Medium for compatibility)
   LRHFCALC=     F    long range Hartree Fock
   LRSCOR  =     F    long range correlation only (use DFT for short range part)
   LTHOMAS =     F    Thomas Fermi screening in HF
   LMODELHF=     F    short range full HF, long range fraction AEXX
   ENCUT4O =  -1.0   cutoff for four orbital integrals eV
   LMAXFOCK=     4    L truncation for augmentation on plane wave grid
   LMAXFOCKAE=  -1    L truncation for all-electron charge restoration on plane wave grid
   NMAXFOCKAE=   1    number of basis functions for all-electron charge restoration
   LFOCKAEDFT=     F  apply the AE augmentation even for DFT
   NKREDX  =     1    reduce k-point grid by
   NKREDY  =     1    reduce k-point grid by
   NKREDZ  =     1    reduce k-point grid by
   SHIFTRED=     F    shift reduced grid of Gamma
   HFKIDENT=     F    idential grid for each k-point
   ODDONLY =     F    use only odd q-grid points
   EVENONLY=     F    use only even q-grid points
   HFALPHA =   -1.0000 decay constant for conv. correction
   MCALPHA =    0.0000 extent of test-charge in conv. correction in multipole expansion
   AEXX    =    0.2500 exact exchange contribution
   HFSCREEN=    0.2000 screening length (either q_TF or 0.3 A-1)
   HFSCREENC=   0.2000 screening length for correlation (either q_TF or 0.3 A-1)
   HFRCUT  =    0.0000 spherical cutoff for potential kernel
   ALDAX   =    0.7500 LDA exchange part
   AGGAX   =    0.7500 GGA exchange part
   ALDAC   =    1.0000 LDA correlation
   AGGAC   =    1.0000 GGA correlation
   ENCUTFOCK=  -1.0 apply spherical cutoff to Coloumb kernel
   NBANDSGWLOW=     1    first orbital included in HF term
   NBLOCK_FOCK=    64    blocking factor in FOCK_ACC
 Linear response parameters
   LEPSILON=     F    determine dielectric tensor
   LRPA    =     F    only Hartree local field effects (RPA)
   LNABLA  =     F    use nabla operator in PAW spheres
   LVEL    =     F    velocity operator in full k-point grid
   LINTERFAST=   F  fast interpolation
   KINTER  =     0    interpolate to denser k-point grid
   CSHIFT  =0.1000    complex shift for real part using Kramers Kronig
   OMEGAMAX=  -1.0    maximum frequency
   DEG_THRESHOLD= 0.2000000E-02 threshold for treating states as degnerate
   RTIME   =   -0.100 relaxation time in fs
  (WPLASMAI=    0.000 imaginary part of plasma frequency in eV, 0.658/RTIME)
   DFIELD  = 0.0000000 0.0000000 0.0000000 field for delta impulse in time
 
 Orbital magnetization related:
   ORBITALMAG=     F  switch on orbital magnetization
   LCHIMAG   =     F  perturbation theory with respect to B field
   DQ        =  0.001000  dq finite difference perturbation B field
   LLRAUG    =     F  two centre corrections for induced B field



--------------------------------------------------------------------------------------------------------


 Static calculation
 charge density and potential will be updated during run
 non collinear spin polarized calculation
 Conjugate gradient for all bands (Freysoldt, et al. PRB 79, 241103 (2009))
 perform sub-space diagonalisation
    before iterative eigenvector-optimisation
 modified Broyden-mixing scheme, WC =      100.0
 initial mixing is a Kerker type mixing with AMIX =  0.4000 and BMIX =      1.0000
 Hartree-type preconditioning will be used
 using additional bands           27
 real space projection scheme for non local part
 use partial core corrections
 no Harris-corrections to forces 
 use gradient corrections 
 use of overlap-Matrix (Vanderbilt PP)
 Gauss-broadening in eV      SIGMA  =   0.05


--------------------------------------------------------------------------------------------------------


  energy-cutoff  :      500.00
  volume of cell :      113.64
      direct lattice vectors                 reciprocal lattice vectors
     4.300140858  0.000000000  0.000000000     0.232550522  0.000000000  0.000000000
     0.000000000  4.300140858  0.000000000     0.000000000  0.232550522  0.000000000
     0.000000000  0.000000000  6.145861149     0.000000000  0.000000000  0.162711128

  length of vectors
     4.300140858  4.300140858  6.145861149     0.232550522  0.232550522  0.162711128


 
 old parameters found on file WAVECAR:
  energy-cutoff  :      500.00
  volume of cell :      113.64
      direct lattice vectors                 reciprocal lattice vectors
     4.300140858  0.000000000  0.000000000     0.232550522  0.000000000  0.000000000
     0.000000000  4.300140858  0.000000000     0.000000000  0.232550522  0.000000000
     0.000000000  0.000000000  6.145861149     0.000000000  0.000000000  0.162711128

  length of vectors

 
 k-points in units of 2pi/SCALE and weight: Automatically generated mesh            
   0.00000000  0.00000000  0.00000000       0.013
   0.04651010  0.00000000  0.00000000       0.013
   0.09302021  0.00000000  0.00000000       0.013
  -0.09302021  0.00000000  0.00000000       0.013
  -0.04651010  0.00000000  0.00000000       0.013
   0.00000000  0.04651010  0.00000000       0.013
   0.04651010  0.04651010  0.00000000       0.013
   0.09302021  0.04651010  0.00000000       0.013
  -0.09302021  0.04651010  0.00000000       0.013
  -0.04651010  0.04651010  0.00000000       0.013
   0.00000000  0.09302021  0.00000000       0.013
   0.04651010  0.09302021  0.00000000       0.013
   0.09302021  0.09302021  0.00000000       0.013
  -0.09302021  0.09302021  0.00000000       0.013
  -0.04651010  0.09302021  0.00000000       0.013
   0.00000000 -0.09302021  0.00000000       0.013
   0.04651010 -0.09302021  0.00000000       0.013
   0.09302021 -0.09302021  0.00000000       0.013
  -0.09302021 -0.09302021  0.00000000       0.013
  -0.04651010 -0.09302021  0.00000000       0.013
   0.00000000 -0.04651010  0.00000000       0.013
   0.04651010 -0.04651010  0.00000000       0.013
   0.09302021 -0.04651010  0.00000000       0.013
  -0.09302021 -0.04651010  0.00000000       0.013
  -0.04651010 -0.04651010  0.00000000       0.013
   0.00000000  0.00000000  0.05423704       0.013
   0.04651010  0.00000000  0.05423704       0.013
   0.09302021  0.00000000  0.05423704       0.013
  -0.09302021  0.00000000  0.05423704       0.013
  -0.04651010  0.00000000  0.05423704       0.013
   0.00000000  0.04651010  0.05423704       0.013
   0.04651010  0.04651010  0.05423704       0.013
   0.09302021  0.04651010  0.05423704       0.013
  -0.09302021  0.04651010  0.05423704       0.013
  -0.04651010  0.04651010  0.05423704       0.013
   0.00000000  0.09302021  0.05423704       0.013
   0.04651010  0.09302021  0.05423704       0.013
   0.09302021  0.09302021  0.05423704       0.013
  -0.09302021  0.09302021  0.05423704       0.013
  -0.04651010  0.09302021  0.05423704       0.013
   0.00000000 -0.09302021  0.05423704       0.013
   0.04651010 -0.09302021  0.05423704       0.013
   0.09302021 -0.09302021  0.05423704       0.013
  -0.09302021 -0.09302021  0.05423704       0.013
  -0.04651010 -0.09302021  0.05423704       0.013
   0.00000000 -0.04651010  0.05423704       0.013
   0.04651010 -0.04651010  0.05423704       0.013
   0.09302021 -0.04651010  0.05423704       0.013
  -0.09302021 -0.04651010  0.05423704       0.013
  -0.04651010 -0.04651010  0.05423704       0.013
   0.00000000  0.00000000 -0.05423704       0.013
   0.04651010  0.00000000 -0.05423704       0.013
   0.09302021  0.00000000 -0.05423704       0.013
  -0.09302021  0.00000000 -0.05423704       0.013
  -0.04651010  0.00000000 -0.05423704       0.013
   0.00000000  0.04651010 -0.05423704       0.013
   0.04651010  0.04651010 -0.05423704       0.013
   0.09302021  0.04651010 -0.05423704       0.013
  -0.09302021  0.04651010 -0.05423704       0.013
  -0.04651010  0.04651010 -0.05423704       0.013
   0.00000000  0.09302021 -0.05423704       0.013
   0.04651010  0.09302021 -0.05423704       0.013
   0.09302021  0.09302021 -0.05423704       0.013
  -0.09302021  0.09302021 -0.05423704       0.013
  -0.04651010  0.09302021 -0.05423704       0.013
   0.00000000 -0.09302021 -0.05423704       0.013
   0.04651010 -0.09302021 -0.05423704       0.013
   0.09302021 -0.09302021 -0.05423704       0.013
  -0.09302021 -0.09302021 -0.05423704       0.013
  -0.04651010 -0.09302021 -0.05423704       0.013
   0.00000000 -0.04651010 -0.05423704       0.013
   0.04651010 -0.04651010 -0.05423704       0.013
   0.09302021 -0.04651010 -0.05423704       0.013
  -0.09302021 -0.04651010 -0.05423704       0.013
  -0.04651010 -0.04651010 -0.05423704       0.013
   0.11627526  0.11627526  0.00000000       0.000
   0.11295311  0.11295311  0.00000000       0.000
   0.10963096  0.10963096  0.00000000       0.000
   0.10630881  0.10630881  0.00000000       0.000
   0.10298666  0.10298666  0.00000000       0.000
   0.09966451  0.09966451  0.00000000       0.000
   0.09634236  0.09634236  0.00000000       0.000
   0.09302021  0.09302021  0.00000000       0.000
   0.08969806  0.08969806  0.00000000       0.000
   0.08637591  0.08637591  0.00000000       0.000
   0.08305376  0.08305376  0.00000000       0.000
   0.07973161  0.07973161  0.00000000       0.000
   0.07640946  0.07640946  0.00000000       0.000
   0.07308731  0.07308731  0.00000000       0.000
   0.06976516  0.06976516  0.00000000       0.000
   0.06644301  0.06644301  0.00000000       0.000
   0.06312086  0.06312086  0.00000000       0.000
   0.05979871  0.05979871  0.00000000       0.000
   0.05647655  0.05647655  0.00000000       0.000
   0.05315441  0.05315441  0.00000000       0.000
   0.04983225  0.04983225  0.00000000       0.000
   0.04651010  0.04651010  0.00000000       0.000
   0.04318796  0.04318796  0.00000000       0.000
   0.03986580  0.03986580  0.00000000       0.000
   0.03654365  0.03654365  0.00000000       0.000
   0.03322150  0.03322150  0.00000000       0.000
   0.02989935  0.02989935  0.00000000       0.000
   0.02657720  0.02657720  0.00000000       0.000
   0.02325505  0.02325505  0.00000000       0.000
   0.01993290  0.01993290  0.00000000       0.000
   0.01661075  0.01661075  0.00000000       0.000
   0.01328860  0.01328860  0.00000000       0.000
   0.00996645  0.00996645  0.00000000       0.000
   0.00664430  0.00664430  0.00000000       0.000
   0.00332215  0.00332215  0.00000000       0.000
   0.00000000  0.00000000  0.00000000       0.000
   0.00000000  0.00000000  0.00000000       0.000
   0.00000000  0.00000000  0.00232444       0.000
   0.00000000  0.00000000  0.00464889       0.000
   0.00000000  0.00000000  0.00697333       0.000
   0.00000000  0.00000000  0.00929778       0.000
   0.00000000  0.00000000  0.01162222       0.000
   0.00000000  0.00000000  0.01394667       0.000
   0.00000000  0.00000000  0.01627111       0.000
   0.00000000  0.00000000  0.01859556       0.000
   0.00000000  0.00000000  0.02092000       0.000
   0.00000000  0.00000000  0.02324445       0.000
   0.00000000  0.00000000  0.02556889       0.000
   0.00000000  0.00000000  0.02789334       0.000
   0.00000000  0.00000000  0.03021778       0.000
   0.00000000  0.00000000  0.03254223       0.000
   0.00000000  0.00000000  0.03486667       0.000
   0.00000000  0.00000000  0.03719112       0.000
   0.00000000  0.00000000  0.03951556       0.000
   0.00000000  0.00000000  0.04184000       0.000
   0.00000000  0.00000000  0.04416445       0.000
   0.00000000  0.00000000  0.04648889       0.000
   0.00000000  0.00000000  0.04881334       0.000
   0.00000000  0.00000000  0.05113778       0.000
   0.00000000  0.00000000  0.05346223       0.000
   0.00000000  0.00000000  0.05578667       0.000
   0.00000000  0.00000000  0.05811112       0.000
   0.00000000  0.00000000  0.06043556       0.000
   0.00000000  0.00000000  0.06276001       0.000
   0.00000000  0.00000000  0.06508445       0.000
   0.00000000  0.00000000  0.06740890       0.000
   0.00000000  0.00000000  0.06973334       0.000
   0.00000000  0.00000000  0.07205778       0.000
   0.00000000  0.00000000  0.07438223       0.000
   0.00000000  0.00000000  0.07670667       0.000
   0.00000000  0.00000000  0.07903112       0.000
   0.00000000  0.00000000  0.08135556       0.000
 
 k-points in reciprocal lattice and weights: Automatically generated mesh            
   0.00000000  0.00000000  0.00000000       0.013
   0.20000000  0.00000000  0.00000000       0.013
   0.40000000  0.00000000  0.00000000       0.013
  -0.40000000  0.00000000  0.00000000       0.013
  -0.20000000  0.00000000  0.00000000       0.013
   0.00000000  0.20000000  0.00000000       0.013
   0.20000000  0.20000000  0.00000000       0.013
   0.40000000  0.20000000  0.00000000       0.013
  -0.40000000  0.20000000  0.00000000       0.013
  -0.20000000  0.20000000  0.00000000       0.013
   0.00000000  0.40000000  0.00000000       0.013
   0.20000000  0.40000000  0.00000000       0.013
   0.40000000  0.40000000  0.00000000       0.013
  -0.40000000  0.40000000  0.00000000       0.013
  -0.20000000  0.40000000  0.00000000       0.013
   0.00000000 -0.40000000  0.00000000       0.013
   0.20000000 -0.40000000  0.00000000       0.013
   0.40000000 -0.40000000  0.00000000       0.013
  -0.40000000 -0.40000000  0.00000000       0.013
  -0.20000000 -0.40000000  0.00000000       0.013
   0.00000000 -0.20000000  0.00000000       0.013
   0.20000000 -0.20000000  0.00000000       0.013
   0.40000000 -0.20000000  0.00000000       0.013
  -0.40000000 -0.20000000  0.00000000       0.013
  -0.20000000 -0.20000000  0.00000000       0.013
   0.00000000  0.00000000  0.33333333       0.013
   0.20000000  0.00000000  0.33333333       0.013
   0.40000000  0.00000000  0.33333333       0.013
  -0.40000000  0.00000000  0.33333333       0.013
  -0.20000000  0.00000000  0.33333333       0.013
   0.00000000  0.20000000  0.33333333       0.013
   0.20000000  0.20000000  0.33333333       0.013
   0.40000000  0.20000000  0.33333333       0.013
  -0.40000000  0.20000000  0.33333333       0.013
  -0.20000000  0.20000000  0.33333333       0.013
   0.00000000  0.40000000  0.33333333       0.013
   0.20000000  0.40000000  0.33333333       0.013
   0.40000000  0.40000000  0.33333333       0.013
  -0.40000000  0.40000000  0.33333333       0.013
  -0.20000000  0.40000000  0.33333333       0.013
   0.00000000 -0.40000000  0.33333333       0.013
   0.20000000 -0.40000000  0.33333333       0.013
   0.40000000 -0.40000000  0.33333333       0.013
  -0.40000000 -0.40000000  0.33333333       0.013
  -0.20000000 -0.40000000  0.33333333       0.013
   0.00000000 -0.20000000  0.33333333       0.013
   0.20000000 -0.20000000  0.33333333       0.013
   0.40000000 -0.20000000  0.33333333       0.013
  -0.40000000 -0.20000000  0.33333333       0.013
  -0.20000000 -0.20000000  0.33333333       0.013
   0.00000000  0.00000000 -0.33333333       0.013
   0.20000000  0.00000000 -0.33333333       0.013
   0.40000000  0.00000000 -0.33333333       0.013
  -0.40000000  0.00000000 -0.33333333       0.013
  -0.20000000  0.00000000 -0.33333333       0.013
   0.00000000  0.20000000 -0.33333333       0.013
   0.20000000  0.20000000 -0.33333333       0.013
   0.40000000  0.20000000 -0.33333333       0.013
  -0.40000000  0.20000000 -0.33333333       0.013
  -0.20000000  0.20000000 -0.33333333       0.013
   0.00000000  0.40000000 -0.33333333       0.013
   0.20000000  0.40000000 -0.33333333       0.013
   0.40000000  0.40000000 -0.33333333       0.013
  -0.40000000  0.40000000 -0.33333333       0.013
  -0.20000000  0.40000000 -0.33333333       0.013
   0.00000000 -0.40000000 -0.33333333       0.013
   0.20000000 -0.40000000 -0.33333333       0.013
   0.40000000 -0.40000000 -0.33333333       0.013
  -0.40000000 -0.40000000 -0.33333333       0.013
  -0.20000000 -0.40000000 -0.33333333       0.013
   0.00000000 -0.20000000 -0.33333333       0.013
   0.20000000 -0.20000000 -0.33333333       0.013
   0.40000000 -0.20000000 -0.33333333       0.013
  -0.40000000 -0.20000000 -0.33333333       0.013
  -0.20000000 -0.20000000 -0.33333333       0.013
   0.50000000  0.50000000  0.00000000       0.000
   0.48571429  0.48571429  0.00000000       0.000
   0.47142857  0.47142857  0.00000000       0.000
   0.45714286  0.45714286  0.00000000       0.000
   0.44285714  0.44285714  0.00000000       0.000
   0.42857143  0.42857143  0.00000000       0.000
   0.41428571  0.41428571  0.00000000       0.000
   0.40000000  0.40000000  0.00000000       0.000
   0.38571429  0.38571429  0.00000000       0.000
   0.37142857  0.37142857  0.00000000       0.000
   0.35714286  0.35714286  0.00000000       0.000
   0.34285714  0.34285714  0.00000000       0.000
   0.32857143  0.32857143  0.00000000       0.000
   0.31428571  0.31428571  0.00000000       0.000
   0.30000000  0.30000000  0.00000000       0.000
   0.28571429  0.28571429  0.00000000       0.000
   0.27142857  0.27142857  0.00000000       0.000
   0.25714286  0.25714286  0.00000000       0.000
   0.24285714  0.24285714  0.00000000       0.000
   0.22857143  0.22857143  0.00000000       0.000
   0.21428571  0.21428571  0.00000000       0.000
   0.20000000  0.20000000  0.00000000       0.000
   0.18571429  0.18571429  0.00000000       0.000
   0.17142857  0.17142857  0.00000000       0.000
   0.15714286  0.15714286  0.00000000       0.000
   0.14285714  0.14285714  0.00000000       0.000
   0.12857143  0.12857143  0.00000000       0.000
   0.11428571  0.11428571  0.00000000       0.000
   0.10000000  0.10000000  0.00000000       0.000
   0.08571429  0.08571429  0.00000000       0.000
   0.07142857  0.07142857  0.00000000       0.000
   0.05714286  0.05714286  0.00000000       0.000
   0.04285714  0.04285714  0.00000000       0.000
   0.02857143  0.02857143  0.00000000       0.000
   0.01428571  0.01428571  0.00000000       0.000
   0.00000000  0.00000000  0.00000000       0.000
   0.00000000  0.00000000  0.00000000       0.000
   0.00000000  0.00000000  0.01428571       0.000
   0.00000000  0.00000000  0.02857143       0.000
   0.00000000  0.00000000  0.04285714       0.000
   0.00000000  0.00000000  0.05714286       0.000
   0.00000000  0.00000000  0.07142857       0.000
   0.00000000  0.00000000  0.08571429       0.000
   0.00000000  0.00000000  0.10000000       0.000
   0.00000000  0.00000000  0.11428571       0.000
   0.00000000  0.00000000  0.12857143       0.000
   0.00000000  0.00000000  0.14285714       0.000
   0.00000000  0.00000000  0.15714286       0.000
   0.00000000  0.00000000  0.17142857       0.000
   0.00000000  0.00000000  0.18571429       0.000
   0.00000000  0.00000000  0.20000000       0.000
   0.00000000  0.00000000  0.21428571       0.000
   0.00000000  0.00000000  0.22857143       0.000
   0.00000000  0.00000000  0.24285714       0.000
   0.00000000  0.00000000  0.25714286       0.000
   0.00000000  0.00000000  0.27142857       0.000
   0.00000000  0.00000000  0.28571429       0.000
   0.00000000  0.00000000  0.30000000       0.000
   0.00000000  0.00000000  0.31428571       0.000
   0.00000000  0.00000000  0.32857143       0.000
   0.00000000  0.00000000  0.34285714       0.000
   0.00000000  0.00000000  0.35714286       0.000
   0.00000000  0.00000000  0.37142857       0.000
   0.00000000  0.00000000  0.38571429       0.000
   0.00000000  0.00000000  0.40000000       0.000
   0.00000000  0.00000000  0.41428571       0.000
   0.00000000  0.00000000  0.42857143       0.000
   0.00000000  0.00000000  0.44285714       0.000
   0.00000000  0.00000000  0.45714286       0.000
   0.00000000  0.00000000  0.47142857       0.000
   0.00000000  0.00000000  0.48571429       0.000
   0.00000000  0.00000000  0.50000000       0.000
 
 position of ions in fractional coordinates (direct lattice) 
   0.50000000  0.00000000  0.72573602
   0.00000000  0.50000000  0.27426400
   0.00000000  0.00000000  0.00000000
   0.50000000  0.50000000  0.50000000
 
 position of ions in cartesian coordinates  (Angst):
   2.15007043  0.00000000  4.46027279
   0.00000000  2.15007043  1.68558848
   0.00000000  0.00000000  0.00000000
   2.15007043  2.15007043  3.07293057
 
 Euler angles ALPHA=     0.0000000  BETA=     0.0000000

 transformation matrix from SAXIS to cartesian coordinates
 ---------------------------------------------------------
     1.0000000 m_x     0.0000000 m_y     0.0000000 m_z
     0.0000000 m_x     1.0000000 m_y     0.0000000 m_z
     0.0000000 m_x     0.0000000 m_y     1.0000000 m_z

 transformation matrix from cartesian coordinates to SAXIS
 ---------------------------------------------------------
     1.0000000 m_x     0.0000000 m_y     0.0000000 m_z
     0.0000000 m_x     1.0000000 m_y     0.0000000 m_z
     0.0000000 m_x     0.0000000 m_y     1.0000000 m_z




--------------------------------------------------------------------------------------------------------


 k-point  1 :   0.0000 0.0000 0.0000  plane waves:    5758
 k-point  2 :   0.2000 0.0000 0.0000  plane waves:    5780
 k-point  3 :   0.4000 0.0000 0.0000  plane waves:    5760
 k-point  4 :  -0.4000 0.0000 0.0000  plane waves:    5760
 k-point  5 :  -0.2000 0.0000 0.0000  plane waves:    5780
 k-point  6 :   0.0000 0.2000 0.0000  plane waves:    5780
 k-point  7 :   0.2000 0.2000 0.0000  plane waves:    5754
 k-point  8 :   0.4000 0.2000 0.0000  plane waves:    5778
 k-point  9 :  -0.4000 0.2000 0.0000  plane waves:    5778
 k-point 10 :  -0.2000 0.2000 0.0000  plane waves:    5754
 k-point 11 :   0.0000 0.4000 0.0000  plane waves:    5760
 k-point 12 :   0.2000 0.4000 0.0000  plane waves:    5778
 k-point 13 :   0.4000 0.4000 0.0000  plane waves:    5754
 k-point 14 :  -0.4000 0.4000 0.0000  plane waves:    5754
 k-point 15 :  -0.2000 0.4000 0.0000  plane waves:    5778
 k-point 16 :   0.0000-0.4000 0.0000  plane waves:    5760
 k-point 17 :   0.2000-0.4000 0.0000  plane waves:    5778
 k-point 18 :   0.4000-0.4000 0.0000  plane waves:    5754
 k-point 19 :  -0.4000-0.4000 0.0000  plane waves:    5754
 k-point 20 :  -0.2000-0.4000 0.0000  plane waves:    5778
 k-point 21 :   0.0000-0.2000 0.0000  plane waves:    5780
 k-point 22 :   0.2000-0.2000 0.0000  plane waves:    5754
 k-point 23 :   0.4000-0.2000 0.0000  plane waves:    5778
 k-point 24 :  -0.4000-0.2000 0.0000  plane waves:    5778
 k-point 25 :  -0.2000-0.2000 0.0000  plane waves:    5754
 k-point 26 :   0.0000 0.0000 0.3333  plane waves:    5748
 k-point 27 :   0.2000 0.0000 0.3333  plane waves:    5764
 k-point 28 :   0.4000 0.0000 0.3333  plane waves:    5764
 k-point 29 :  -0.4000 0.0000 0.3333  plane waves:    5764
 k-point 30 :  -0.2000 0.0000 0.3333  plane waves:    5764
 k-point 31 :   0.0000 0.2000 0.3333  plane waves:    5764
 k-point 32 :   0.2000 0.2000 0.3333  plane waves:    5744
 k-point 33 :   0.4000 0.2000 0.3333  plane waves:    5788
 k-point 34 :  -0.4000 0.2000 0.3333  plane waves:    5788
 k-point 35 :  -0.2000 0.2000 0.3333  plane waves:    5744
 k-point 36 :   0.0000 0.4000 0.3333  plane waves:    5764
 k-point 37 :   0.2000 0.4000 0.3333  plane waves:    5788
 k-point 38 :   0.4000 0.4000 0.3333  plane waves:    5780
 k-point 39 :  -0.4000 0.4000 0.3333  plane waves:    5780
 k-point 40 :  -0.2000 0.4000 0.3333  plane waves:    5788
 k-point 41 :   0.0000-0.4000 0.3333  plane waves:    5764
 k-point 42 :   0.2000-0.4000 0.3333  plane waves:    5788
 k-point 43 :   0.4000-0.4000 0.3333  plane waves:    5780
 k-point 44 :  -0.4000-0.4000 0.3333  plane waves:    5780
 k-point 45 :  -0.2000-0.4000 0.3333  plane waves:    5788
 k-point 46 :   0.0000-0.2000 0.3333  plane waves:    5764
 k-point 47 :   0.2000-0.2000 0.3333  plane waves:    5744
 k-point 48 :   0.4000-0.2000 0.3333  plane waves:    5788
 k-point 49 :  -0.4000-0.2000 0.3333  plane waves:    5788
 k-point 50 :  -0.2000-0.2000 0.3333  plane waves:    5744
 k-point 51 :   0.0000 0.0000-0.3333  plane waves:    5748
 k-point 52 :   0.2000 0.0000-0.3333  plane waves:    5764
 k-point 53 :   0.4000 0.0000-0.3333  plane waves:    5764
 k-point 54 :  -0.4000 0.0000-0.3333  plane waves:    5764
 k-point 55 :  -0.2000 0.0000-0.3333  plane waves:    5764
 k-point 56 :   0.0000 0.2000-0.3333  plane waves:    5764
 k-point 57 :   0.2000 0.2000-0.3333  plane waves:    5744
 k-point 58 :   0.4000 0.2000-0.3333  plane waves:    5788
 k-point 59 :  -0.4000 0.2000-0.3333  plane waves:    5788
 k-point 60 :  -0.2000 0.2000-0.3333  plane waves:    5744
 k-point 61 :   0.0000 0.4000-0.3333  plane waves:    5764
 k-point 62 :   0.2000 0.4000-0.3333  plane waves:    5788
 k-point 63 :   0.4000 0.4000-0.3333  plane waves:    5780
 k-point 64 :  -0.4000 0.4000-0.3333  plane waves:    5780
 k-point 65 :  -0.2000 0.4000-0.3333  plane waves:    5788
 k-point 66 :   0.0000-0.4000-0.3333  plane waves:    5764
 k-point 67 :   0.2000-0.4000-0.3333  plane waves:    5788
 k-point 68 :   0.4000-0.4000-0.3333  plane waves:    5780
 k-point 69 :  -0.4000-0.4000-0.3333  plane waves:    5780
 k-point 70 :  -0.2000-0.4000-0.3333  plane waves:    5788
 k-point 71 :   0.0000-0.2000-0.3333  plane waves:    5764
 k-point 72 :   0.2000-0.2000-0.3333  plane waves:    5744
 k-point 73 :   0.4000-0.2000-0.3333  plane waves:    5788
 k-point 74 :  -0.4000-0.2000-0.3333  plane waves:    5788
 k-point 75 :  -0.2000-0.2000-0.3333  plane waves:    5744
 k-point 76 :   0.5000 0.5000 0.0000  plane waves:    5760
 k-point 77 :   0.4857 0.4857 0.0000  plane waves:    5740
 k-point 78 :   0.4714 0.4714 0.0000  plane waves:    5736
 k-point 79 :   0.4571 0.4571 0.0000  plane waves:    5736
 k-point 80 :   0.4429 0.4429 0.0000  plane waves:    5746
 k-point 81 :   0.4286 0.4286 0.0000  plane waves:    5778
 k-point 82 :   0.4143 0.4143 0.0000  plane waves:    5770
 k-point 83 :   0.4000 0.4000 0.0000  plane waves:    5754
 k-point 84 :   0.3857 0.3857 0.0000  plane waves:    5750
 k-point 85 :   0.3714 0.3714 0.0000  plane waves:    5750
 k-point 86 :   0.3571 0.3571 0.0000  plane waves:    5750
 k-point 87 :   0.3429 0.3429 0.0000  plane waves:    5766
 k-point 88 :   0.3286 0.3286 0.0000  plane waves:    5770
 k-point 89 :   0.3143 0.3143 0.0000  plane waves:    5774
 k-point 90 :   0.3000 0.3000 0.0000  plane waves:    5770
 k-point 91 :   0.2857 0.2857 0.0000  plane waves:    5778
 k-point 92 :   0.2714 0.2714 0.0000  plane waves:    5778
 k-point 93 :   0.2571 0.2571 0.0000  plane waves:    5774
 k-point 94 :   0.2429 0.2429 0.0000  plane waves:    5766
 k-point 95 :   0.2286 0.2286 0.0000  plane waves:    5766
 k-point 96 :   0.2143 0.2143 0.0000  plane waves:    5766
 k-point 97 :   0.2000 0.2000 0.0000  plane waves:    5754
 k-point 98 :   0.1857 0.1857 0.0000  plane waves:    5742
 k-point 99 :   0.1714 0.1714 0.0000  plane waves:    5754
 k-point ** :   0.1571 0.1571 0.0000  plane waves:    5742
 k-point ** :   0.1429 0.1429 0.0000  plane waves:    5766
 k-point ** :   0.1286 0.1286 0.0000  plane waves:    5758
 k-point ** :   0.1143 0.1143 0.0000  plane waves:    5754
 k-point ** :   0.1000 0.1000 0.0000  plane waves:    5754
 k-point ** :   0.0857 0.0857 0.0000  plane waves:    5754
 k-point ** :   0.0714 0.0714 0.0000  plane waves:    5778
 k-point ** :   0.0571 0.0571 0.0000  plane waves:    5762
 k-point ** :   0.0429 0.0429 0.0000  plane waves:    5750
 k-point ** :   0.0286 0.0286 0.0000  plane waves:    5762
 k-point ** :   0.0143 0.0143 0.0000  plane waves:    5774
 k-point ** :   0.0000 0.0000 0.0000  plane waves:    5758
 k-point ** :   0.0000 0.0000 0.0000  plane waves:    5758
 k-point ** :   0.0000 0.0000 0.0143  plane waves:    5758
 k-point ** :   0.0000 0.0000 0.0286  plane waves:    5766
 k-point ** :   0.0000 0.0000 0.0429  plane waves:    5766
 k-point ** :   0.0000 0.0000 0.0571  plane waves:    5774
 k-point ** :   0.0000 0.0000 0.0714  plane waves:    5758
 k-point ** :   0.0000 0.0000 0.0857  plane waves:    5758
 k-point ** :   0.0000 0.0000 0.1000  plane waves:    5758
 k-point ** :   0.0000 0.0000 0.1143  plane waves:    5750
 k-point ** :   0.0000 0.0000 0.1286  plane waves:    5750
 k-point ** :   0.0000 0.0000 0.1429  plane waves:    5750
 k-point ** :   0.0000 0.0000 0.1571  plane waves:    5734
 k-point ** :   0.0000 0.0000 0.1714  plane waves:    5750
 k-point ** :   0.0000 0.0000 0.1857  plane waves:    5750
 k-point ** :   0.0000 0.0000 0.2000  plane waves:    5750
 k-point ** :   0.0000 0.0000 0.2143  plane waves:    5740
 k-point ** :   0.0000 0.0000 0.2286  plane waves:    5740
 k-point ** :   0.0000 0.0000 0.2429  plane waves:    5748
 k-point ** :   0.0000 0.0000 0.2571  plane waves:    5732
 k-point ** :   0.0000 0.0000 0.2714  plane waves:    5748
 k-point ** :   0.0000 0.0000 0.2857  plane waves:    5748
 k-point ** :   0.0000 0.0000 0.3000  plane waves:    5748
 k-point ** :   0.0000 0.0000 0.3143  plane waves:    5748
 k-point ** :   0.0000 0.0000 0.3286  plane waves:    5748
 k-point ** :   0.0000 0.0000 0.3429  plane waves:    5764
 k-point ** :   0.0000 0.0000 0.3571  plane waves:    5756
 k-point ** :   0.0000 0.0000 0.3714  plane waves:    5788
 k-point ** :   0.0000 0.0000 0.3857  plane waves:    5804
 k-point ** :   0.0000 0.0000 0.4000  plane waves:    5788
 k-point ** :   0.0000 0.0000 0.4143  plane waves:    5788
 k-point ** :   0.0000 0.0000 0.4286  plane waves:    5780
 k-point ** :   0.0000 0.0000 0.4429  plane waves:    5780
 k-point ** :   0.0000 0.0000 0.4571  plane waves:    5772
 k-point ** :   0.0000 0.0000 0.4714  plane waves:    5772
 k-point ** :   0.0000 0.0000 0.4857  plane waves:    5772
 k-point ** :   0.0000 0.0000 0.5000  plane waves:    5772

 maximum and minimum number of plane-waves per node :       408      330

 maximum number of plane-waves:      5804
 maximum index in each direction: 
   IXMAX=    8   IYMAX=    8   IZMAX=   11
   IXMIN=   -8   IYMIN=   -8   IZMIN=  -11


 real space projection operators:
  total allocation   :       2109.02 KBytes
  max/ min on nodes  :        154.04        110.87


 parallel 3D FFT for wavefunctions:
    minimum data exchange during FFTs selected (reduces bandwidth)
 parallel 3D FFT for charge:
    minimum data exchange during FFTs selected (reduces bandwidth)


 FFT grid for exact exchange (Hartree Fock) 
  NGX = 24; NGY = 24; NGZ = 36

 
 Radii for the augmentation spheres in the non-local exchange
 for species   1 augmentation radius   1.596 (default was   1.277)
       energy cutoff for augmentation   2000.0
 for species   2 augmentation radius   1.357 (default was   1.086)
       energy cutoff for augmentation   2000.0
 for species   3 augmentation radius   1.328 (default was   1.062)
       energy cutoff for augmentation   2000.0

 real space projection operators:
  total allocation   :       1922.66 KBytes
  max/ min on nodes  :        164.26         74.61

 Maximum index for augmentation-charges in exchange          305
  SETUP_FOCK is finished

 total amount of memory used by VASP MPI-rank0    64178. kBytes
=======================================================================

   base      :      30000. kBytes
   nonlr-proj:        966. kBytes
   fftplans  :        640. kBytes
   grid      :       1966. kBytes
   one-center:         62. kBytes
   HF        :         64. kBytes
   wavefun   :      30480. kBytes
 
     INWAV:  cpu time    3.5734: real time    3.6579
 Broyden mixing: mesh for mixing (old mesh)
   NGX = 15   NGY = 15   NGZ = 23
  (NGX  = 64   NGY  = 64   NGZ  = 96)
  gives a total of   5175 points

 initial charge density was supplied:
 charge density of overlapping atoms calculated
 number of electron      26.0000000 magnetization       4.0000000      4.0000000      4.0000000
 charge density for first step will be calculated from the start-wavefunctions


--------------------------------------------------------------------------------------------------------


 Maximum index for non-local projection operator          368
 Maximum index for augmentation-charges         1186 (set IRDMAX)


--------------------------------------------------------------------------------------------------------


 initial charge from wavefunction
 First call to EWALD:  gamma=   0.366
 Maximum number of real-space cells 3x 3x 2
 Maximum number of reciprocal cells 2x 2x 3

    FEWALD:  cpu time    0.0020: real time    0.0021


--------------------------------------- Iteration      1(   1)  ---------------------------------------


    POTLOK:  cpu time    0.0695: real time    0.0729
    SETDIJ:  cpu time    0.2711: real time    0.2715
    TRIAL :  cpu time 1276.7410: real time 1279.4660
    CORREC:  cpu time    0.0059: real time    0.0059
    CHARGE:  cpu time    0.1736: real time    0.1740
    --------------------------------------------
      LOOP:  cpu time 1277.2965: real time 1280.0417

 eigenvalue-minimisations  :     0
 total energy-change (2. order) :-0.1821707E+02  (-0.1390063E+00)
 number of electron      26.0000008 magnetization      -0.0000054     -0.0000054     -0.0000052
 augmentation part        4.0487507 magnetization       0.0000014      0.0000015      0.0000015

 Free energy of the ion-electron system (eV)
  ---------------------------------------------------
  alpha Z        PSCENC =        64.20128509
  Ewald energy   TEWEN  =     -1439.91766544
  -Hartree energ DENC   =      -754.80137001
  -exchange      EXHF   =        49.02466732
  -V(xc)+E(xc)   XCENC  =        -3.49306771
  PAW double counting   =      2407.75234148    -2323.58185883
  entropy T*S    EENTRO =        -0.00113148
  eigenvalues    EBANDS =      -261.22233123
  atomic energy  EATOM  =      2243.82239720
  ---------------------------------------------------
  free energy    TOTEN  =       -18.21707394 eV

  energy without entropy =      -18.21594246  energy(sigma->0) =      -18.21650820
  exchange ACFDT corr.  =        -0.00054870  see jH, gK, PRB 81, 115126


--------------------------------------------------------------------------------------------------------




--------------------------------------- Iteration      1(   2)  ---------------------------------------


    POTLOK:  cpu time    0.0977: real time    0.1006
    SETDIJ:  cpu time    0.2707: real time    0.2709
    TRIAL :  cpu time 1284.8765: real time 1287.4490
    CORREC:  cpu time    0.0063: real time    0.0063
    CHARGE:  cpu time    0.1780: real time    0.1783
    --------------------------------------------
      LOOP:  cpu time 1285.4375: real time 1288.0226

 eigenvalue-minimisations  :     0
 total energy-change (2. order) :-0.9532710E-01  (-0.7446929E-01)
 number of electron      26.0000008 magnetization      -0.0000015     -0.0000015     -0.0000012
 augmentation part        4.0820464 magnetization       0.0000001      0.0000003      0.0000007

 Free energy of the ion-electron system (eV)
  ---------------------------------------------------
  alpha Z        PSCENC =        64.20128509
  Ewald energy   TEWEN  =     -1439.91766544
  -Hartree energ DENC   =      -758.19338520
  -exchange      EXHF   =        49.10516641
  -V(xc)+E(xc)   XCENC  =        -3.34387537
  PAW double counting   =      2499.94780117    -2415.48576019
  entropy T*S    EENTRO =        -0.00031148
  eigenvalues    EBANDS =      -258.44723323
  atomic energy  EATOM  =      2243.82239720
  ---------------------------------------------------
  free energy    TOTEN  =       -18.31240104 eV

  energy without entropy =      -18.31208956  energy(sigma->0) =      -18.31224530
  exchange ACFDT corr.  =        -0.00038450  see jH, gK, PRB 81, 115126


--------------------------------------------------------------------------------------------------------




--------------------------------------- Iteration      1(   3)  ---------------------------------------


    POTLOK:  cpu time    0.1255: real time    0.1289
    SETDIJ:  cpu time    0.3049: real time    0.3052
    TRIAL :  cpu time 1288.8370: real time 1291.5934
    CORREC:  cpu time    0.0054: real time    0.0054
    CHARGE:  cpu time    0.1783: real time    0.1787
    --------------------------------------------
      LOOP:  cpu time 1289.4524: real time 1292.2207

 eigenvalue-minimisations  :     0
 total energy-change (2. order) :-0.4599133E-01  (-0.1818454E-01)
 number of electron      26.0000008 magnetization      -0.0000005     -0.0000005     -0.0000004
 augmentation part        4.1082636 magnetization       0.0000002      0.0000003      0.0000002

 Free energy of the ion-electron system (eV)
  ---------------------------------------------------
  alpha Z        PSCENC =        64.20128509
  Ewald energy   TEWEN  =     -1439.91766544
  -Hartree energ DENC   =      -755.79472299
  -exchange      EXHF   =        49.08232093
  -V(xc)+E(xc)   XCENC  =        -3.34902372
  PAW double counting   =      2597.55177259    -2513.10421106
  entropy T*S    EENTRO =        -0.00002870
  eigenvalues    EBANDS =      -260.85023347
  atomic energy  EATOM  =      2243.82239720
  ---------------------------------------------------
  free energy    TOTEN  =       -18.35839237 eV

  energy without entropy =      -18.35836367  energy(sigma->0) =      -18.35837802
  exchange ACFDT corr.  =        -0.00007879  see jH, gK, PRB 81, 115126


--------------------------------------------------------------------------------------------------------




--------------------------------------- Iteration      1(   4)  ---------------------------------------


    POTLOK:  cpu time    0.1211: real time    0.1244
    SETDIJ:  cpu time    0.2716: real time    0.2718
    TRIAL :  cpu time 1259.5468: real time 1262.2779
    CORREC:  cpu time    0.0049: real time    0.0049
    CHARGE:  cpu time    0.1743: real time    0.1746
    --------------------------------------------
      LOOP:  cpu time 1260.1215: real time 1262.8642

 eigenvalue-minimisations  :     0
 total energy-change (2. order) :-0.1168124E-01  (-0.8174537E-02)
 number of electron      26.0000008 magnetization      -0.0000003     -0.0000003     -0.0000002
 augmentation part        4.1245890 magnetization       0.0000003      0.0000003      0.0000001

 Free energy of the ion-electron system (eV)
  ---------------------------------------------------
  alpha Z        PSCENC =        64.20128509
  Ewald energy   TEWEN  =     -1439.91766544
  -Hartree energ DENC   =      -755.78653753
  -exchange      EXHF   =        49.10563969
  -V(xc)+E(xc)   XCENC  =        -3.31954486
  PAW double counting   =      2655.12759279    -2570.66262858
  entropy T*S    EENTRO =        -0.00000154
  eigenvalues    EBANDS =      -260.94058327
  atomic energy  EATOM  =      2243.82239720
  ---------------------------------------------------
  free energy    TOTEN  =       -18.37007361 eV

  energy without entropy =      -18.37007207  energy(sigma->0) =      -18.37007284
  exchange ACFDT corr.  =        -0.00000522  see jH, gK, PRB 81, 115126


--------------------------------------------------------------------------------------------------------




--------------------------------------- Iteration      1(   5)  ---------------------------------------


    POTLOK:  cpu time    0.1312: real time    0.1611
    SETDIJ:  cpu time    0.3825: real time    0.3828
    TRIAL :  cpu time 1289.4571: real time 1292.9118
    CORREC:  cpu time    0.0043: real time    0.0043
    CHARGE:  cpu time    0.2056: real time    0.2060
    --------------------------------------------
      LOOP:  cpu time 1290.1821: real time 1293.6759

 eigenvalue-minimisations  :     0
 total energy-change (2. order) :-0.5858962E-02  (-0.4840215E-02)
 number of electron      26.0000008 magnetization      -0.0000002     -0.0000002     -0.0000002
 augmentation part        4.1259920 magnetization       0.0000001      0.0000002      0.0000001

 Free energy of the ion-electron system (eV)
  ---------------------------------------------------
  alpha Z        PSCENC =        64.20128509
  Ewald energy   TEWEN  =     -1439.91766544
  -Hartree energ DENC   =      -756.57061591
  -exchange      EXHF   =        49.13857792
  -V(xc)+E(xc)   XCENC  =        -3.28959314
  PAW double counting   =      2673.91492490    -2589.43638333
  entropy T*S    EENTRO =        -0.00000009
  eigenvalues    EBANDS =      -260.23885830
  atomic energy  EATOM  =      2243.82239720
  ---------------------------------------------------
  free energy    TOTEN  =       -18.37593257 eV

  energy without entropy =      -18.37593248  energy(sigma->0) =      -18.37593252
  exchange ACFDT corr.  =        -0.00000022  see jH, gK, PRB 81, 115126


--------------------------------------------------------------------------------------------------------




--------------------------------------- Iteration      1(   6)  ---------------------------------------


    POTLOK:  cpu time    0.0934: real time    0.0965
    SETDIJ:  cpu time    0.2899: real time    0.2903
    TRIAL :  cpu time 1295.6167: real time 1299.1367
    CORREC:  cpu time    0.0035: real time    0.0035
    CHARGE:  cpu time    0.2081: real time    0.2085
    --------------------------------------------
      LOOP:  cpu time 1296.2134: real time 1299.7451

 eigenvalue-minimisations  :     0
 total energy-change (2. order) :-0.3790499E-02  (-0.2475391E-02)
 number of electron      26.0000008 magnetization      -0.0000001     -0.0000001     -0.0000001
 augmentation part        4.1271187 magnetization       0.0000000      0.0000001      0.0000001

 Free energy of the ion-electron system (eV)
  ---------------------------------------------------
  alpha Z        PSCENC =        64.20128509
  Ewald energy   TEWEN  =     -1439.91766544
  -Hartree energ DENC   =      -756.36140364
  -exchange      EXHF   =        49.14502645
  -V(xc)+E(xc)   XCENC  =        -3.29492646
  PAW double counting   =      2672.05562233    -2587.61390679
  entropy T*S    EENTRO =        -0.00000001
  eigenvalues    EBANDS =      -260.41615173
  atomic energy  EATOM  =      2243.82239720
  ---------------------------------------------------
  free energy    TOTEN  =       -18.37972307 eV

  energy without entropy =      -18.37972306  energy(sigma->0) =      -18.37972306
  exchange ACFDT corr.  =        -0.00000001  see jH, gK, PRB 81, 115126


--------------------------------------------------------------------------------------------------------




--------------------------------------- Iteration      1(   7)  ---------------------------------------


    POTLOK:  cpu time    0.1405: real time    0.1422
    SETDIJ:  cpu time    0.2828: real time    0.2831
    TRIAL :  cpu time 1280.7762: real time 1284.5590
    CORREC:  cpu time    0.0034: real time    0.0034
    CHARGE:  cpu time    0.2067: real time    0.2072
    --------------------------------------------
      LOOP:  cpu time 1281.4118: real time 1285.2043

 eigenvalue-minimisations  :     0
 total energy-change (2. order) :-0.1902406E-02  (-0.1158662E-02)
 number of electron      26.0000008 magnetization      -0.0000001     -0.0000001     -0.0000001
 augmentation part        4.1307134 magnetization       0.0000000      0.0000000      0.0000001

 Free energy of the ion-electron system (eV)
  ---------------------------------------------------
  alpha Z        PSCENC =        64.20128509
  Ewald energy   TEWEN  =     -1439.91766544
  -Hartree energ DENC   =      -756.24345146
  -exchange      EXHF   =        49.14816797
  -V(xc)+E(xc)   XCENC  =        -3.30058757
  PAW double counting   =      2664.50364471    -2580.08193990
  entropy T*S    EENTRO =        -0.00000000
  eigenvalues    EBANDS =      -260.51347605
  atomic energy  EATOM  =      2243.82239720
  ---------------------------------------------------
  free energy    TOTEN  =       -18.38162547 eV

  energy without entropy =      -18.38162547  energy(sigma->0) =      -18.38162547
  exchange ACFDT corr.  =        -0.00000000  see jH, gK, PRB 81, 115126


[...]
 -0.000   0.000  -0.000   0.000  -0.000  -0.000   0.000  -0.000  -0.000  -0.000  -0.000  -0.000   0.000  -0.000  -0.000  -0.000
 -0.000   0.000  -0.000   0.000  -0.000   0.000   0.000  -0.038  -0.000  -0.000  -0.000   0.000   0.000  -0.072  -0.000  -0.000
  0.000  -0.000   0.000  -0.000   0.000   0.038  -0.000   0.000  -0.038   0.000   0.000   0.072  -0.000   0.000  -0.072   0.000
  0.000  -0.000   0.000  -0.000  -0.000  -0.000   0.038   0.000  -0.000   0.000  -0.000  -0.000   0.072   0.000  -0.000   0.000
 -0.000   0.000  -0.000   0.000  -0.000   0.000   0.000  -0.072  -0.000  -0.000  -0.000   0.000   0.000  -0.138  -0.000  -0.000
  0.000  -0.000   0.000  -0.000   0.000   0.072  -0.000   0.000  -0.072   0.000   0.000   0.138  -0.000   0.000  -0.138   0.000
  0.000  -0.000   0.000  -0.000  -0.000  -0.000   0.072   0.000  -0.000   0.000  -0.000  -0.000   0.138   0.000  -0.000   0.000
 -0.000  -0.000  -0.000  -0.000   0.000  -0.000   0.000   0.000  -0.000   0.000   0.000  -0.000   0.000   0.000  -0.000   0.000
  0.000   0.000   0.000   0.000   0.000  -0.000  -0.000   0.000   0.000   0.000   0.000  -0.000  -0.000   0.000   0.000   0.000
  0.000  -0.000   0.000  -0.000   0.000  -0.000   0.000  -0.000   0.000   0.000   0.000  -0.000   0.000  -0.000   0.000   0.000
  0.000   0.000   0.000   0.000   0.000   0.000   0.000  -0.000   0.000  -0.000   0.000   0.000   0.000  -0.000   0.000  -0.000
 -0.000   0.000  -0.000   0.000   0.000  -0.000   0.000  -0.000   0.000  -0.000   0.000  -0.000   0.000  -0.000   0.000  -0.000
 pseudopotential strength for first ion, spin component:           3
 -0.000  -0.000  -0.000  -0.000  -0.000  -0.000   0.000   0.000   0.000   0.000  -0.000  -0.000   0.000   0.000   0.000   0.000
 -0.000  -0.000  -0.000  -0.000  -0.000  -0.000   0.000   0.000   0.000   0.000  -0.000  -0.000   0.000   0.000   0.000   0.000
 -0.000   0.000  -0.000   0.000  -0.000  -0.000   0.000  -0.038  -0.000   0.000  -0.000  -0.000   0.000  -0.072  -0.000   0.000
  0.000   0.000   0.000   0.000   0.000   0.038  -0.000  -0.000   0.038  -0.000   0.000   0.072  -0.000  -0.000   0.072  -0.000
 -0.000   0.000  -0.000   0.000  -0.000   0.000  -0.038  -0.000  -0.000  -0.000  -0.000   0.000  -0.072  -0.000  -0.000  -0.000
 -0.000   0.000  -0.000   0.000  -0.000  -0.000   0.000  -0.072  -0.000   0.000  -0.000  -0.000   0.000  -0.138  -0.000   0.000
  0.000   0.000   0.000   0.000   0.000   0.072  -0.000  -0.000   0.072  -0.000   0.000   0.138  -0.000  -0.000   0.138  -0.000
 -0.000   0.000  -0.000   0.000  -0.000   0.000  -0.072  -0.000  -0.000  -0.000  -0.000   0.000  -0.138  -0.000  -0.000  -0.000
 -0.000   0.000  -0.000   0.000  -0.000   0.000   0.000  -0.000  -0.000   0.000  -0.000   0.000   0.000  -0.000  -0.000   0.000
  0.000   0.000   0.000   0.000   0.000   0.000  -0.000   0.000   0.000  -0.000   0.000   0.000  -0.000   0.000   0.000  -0.000
  0.000   0.000   0.000   0.000   0.000  -0.000   0.000   0.000  -0.000  -0.000   0.000  -0.000   0.000   0.000  -0.000  -0.000
 -0.000  -0.000  -0.000  -0.000   0.000  -0.000  -0.000   0.000   0.000   0.000   0.000  -0.000  -0.000   0.000   0.000   0.000
 -0.000  -0.000  -0.000  -0.000   0.000  -0.000   0.000   0.000  -0.000   0.000   0.000  -0.000   0.000   0.000  -0.000   0.000
 pseudopotential strength for first ion, spin component:           4
  4.553  -0.000   5.391   0.000   0.000  -0.000  -0.007   0.000  -0.000   0.000   0.000  -0.000  -0.013   0.000  -0.000   0.000
  5.391  -0.000   6.367   0.000   0.000  -0.000  -0.009   0.000  -0.000   0.000   0.000  -0.000  -0.016   0.000  -0.000   0.000
  0.000   0.000   0.000   0.000   1.046  -0.000  -0.000  -0.000   0.000  -0.038   1.733  -0.000  -0.000  -0.000   0.000  -0.072
 -0.007  -0.000  -0.009  -0.000  -0.000   0.000   1.048  -0.000   0.000  -0.000  -0.000   0.000   1.737   0.000   0.000  -0.000
 -0.000  -0.000  -0.000  -0.000   0.000   0.038   0.000   0.000   1.049  -0.000   0.000   0.072   0.000   0.000   1.738   0.000
  0.000   0.000   0.000   0.000   1.733   0.000  -0.000  -0.000   0.000  -0.072   2.877   0.000  -0.000  -0.000   0.000  -0.138
 -0.013  -0.000  -0.016  -0.000  -0.000   0.000   1.737  -0.000   0.000  -0.000  -0.000   0.000   2.883   0.000   0.000  -0.000
 -0.000  -0.000  -0.000  -0.000   0.000   0.072   0.000   0.000   1.738  -0.000   0.000   0.138   0.000   0.000   2.886   0.000
  0.000   0.000   0.000   0.000  -0.000  -0.000  -0.000   0.000   0.000   0.000  -0.000  -0.000  -0.000   0.000   0.000   0.000
 -0.000   0.000  -0.000   0.000  -0.001  -0.000   0.000   0.000  -0.000   0.000  -0.002  -0.000   0.000   0.000  -0.000   0.000
  0.001   0.000   0.001   0.000  -0.000   0.000  -0.002  -0.000   0.000  -0.000  -0.000   0.000  -0.004  -0.000   0.000  -0.000
  0.000   0.000   0.000   0.000  -0.000  -0.000  -0.000   0.000  -0.001  -0.000  -0.000  -0.000  -0.000   0.000  -0.002  -0.000
  0.004   0.000   0.005   0.000  -0.000   0.000   0.000   0.000  -0.000  -0.000  -0.000   0.000  -0.000   0.000  -0.000  -0.000
 total augmentation occupancy for first ion, spin component:           1
  6.398  -2.862  -0.000   0.003   0.000   0.000  -0.005  -0.000   0.000  -0.000  -0.000   0.000  -0.040
 -2.862   1.390   0.000   0.051  -0.000  -0.000  -0.007   0.000  -0.000   0.000   0.000  -0.000   0.022
 -0.000   0.000   2.521  -0.000  -0.000  -0.613   0.000   0.000   0.000  -0.255  -0.000  -0.000  -0.000
  0.003   0.051  -0.000   2.370  -0.000   0.000  -0.564   0.000   0.000   0.000   0.035  -0.000   0.243
  0.000  -0.000  -0.000  -0.000   2.269   0.000   0.000  -0.520   0.000   0.000  -0.000   0.229  -0.000
  0.000  -0.000  -0.613   0.000   0.000   0.155  -0.000  -0.000  -0.000   0.063   0.000   0.000   0.000
 -0.005  -0.007   0.000  -0.564   0.000  -0.000   0.141  -0.000  -0.000  -0.000  -0.008   0.000  -0.058
 -0.000   0.000   0.000   0.000  -0.520  -0.000  -0.000   0.127  -0.000  -0.000  -0.000  -0.052   0.000
  0.000  -0.000   0.000   0.000   0.000  -0.000  -0.000  -0.000   0.011  -0.000   0.000   0.000   0.000
 -0.000   0.000  -0.255   0.000   0.000   0.063  -0.000  -0.000  -0.000   0.041   0.000   0.000   0.000
 -0.000   0.000  -0.000   0.035  -0.000   0.000  -0.008  -0.000   0.000   0.000   0.011  -0.000   0.005
  0.000  -0.000  -0.000  -0.000   0.229   0.000   0.000  -0.052   0.000   0.000  -0.000   0.038  -0.000
 -0.040   0.022  -0.000   0.243  -0.000   0.000  -0.058   0.000   0.000   0.000   0.005  -0.000   0.040
 total augmentation occupancy for first ion, spin component:           2
  0.000  -0.000   0.000   0.000  -0.000   0.000  -0.000   0.000  -0.000   0.000   0.000  -0.000  -0.000
 -0.000   0.000  -0.000  -0.000  -0.000  -0.000   0.000  -0.000   0.000  -0.000  -0.000   0.000   0.000
  0.000  -0.000  -0.000  -0.000  -0.000  -0.000   0.000   0.000  -0.000  -0.000   0.000  -0.000  -0.000
  0.000  -0.000  -0.000  -0.000  -0.000   0.000  -0.000  -0.000  -0.000   0.000   0.000  -0.000   0.000
 -0.000  -0.000  -0.000  -0.000  -0.000   0.000   0.000  -0.000   0.000   0.000   0.000   0.000  -0.000
  0.000  -0.000  -0.000   0.000   0.000   0.000  -0.000  -0.000   0.000   0.000  -0.000   0.000   0.000
 -0.000   0.000   0.000  -0.000   0.000  -0.000   0.000   0.000   0.000  -0.000  -0.000   0.000  -0.000
  0.000  -0.000   0.000  -0.000  -0.000  -0.000   0.000   0.000  -0.000   0.000  -0.000  -0.000  -0.000
 -0.000   0.000  -0.000  -0.000   0.000   0.000   0.000  -0.000   0.000   0.000  -0.000   0.000  -0.000
  0.000  -0.000  -0.000   0.000   0.000   0.000  -0.000   0.000   0.000   0.000   0.000  -0.000   0.000
  0.000  -0.000   0.000   0.000   0.000  -0.000  -0.000  -0.000  -0.000   0.000   0.000  -0.000   0.000
 -0.000   0.000  -0.000  -0.000   0.000   0.000   0.000  -0.000   0.000  -0.000  -0.000   0.000  -0.000
 -0.000   0.000  -0.000   0.000  -0.000   0.000  -0.000  -0.000  -0.000   0.000   0.000  -0.000   0.000
 total augmentation occupancy for first ion, spin component:           3
 -0.000  -0.000   0.000   0.000  -0.000  -0.000   0.000  -0.000   0.000   0.000   0.000  -0.000  -0.000
 -0.000   0.000  -0.000  -0.000   0.000   0.000  -0.000   0.000  -0.000  -0.000  -0.000  -0.000   0.000
  0.000  -0.000  -0.000   0.000   0.000  -0.000  -0.000   0.000  -0.000  -0.000  -0.000   0.000  -0.000
  0.000  -0.000   0.000  -0.000  -0.000  -0.000  -0.000   0.000  -0.000   0.000   0.000  -0.000   0.000
 -0.000   0.000   0.000  -0.000  -0.000  -0.000   0.000  -0.000   0.000  -0.000  -0.000   0.000  -0.000
 -0.000   0.000  -0.000  -0.000  -0.000   0.000   0.000  -0.000   0.000   0.000   0.000   0.000   0.000
  0.000  -0.000  -0.000  -0.000   0.000   0.000   0.000  -0.000   0.000  -0.000  -0.000   0.000  -0.000
 -0.000   0.000   0.000   0.000  -0.000  -0.000  -0.000   0.000  -0.000  -0.000   0.000  -0.000   0.000
  0.000  -0.000  -0.000  -0.000   0.000   0.000   0.000  -0.000   0.000   0.000  -0.000   0.000  -0.000
  0.000  -0.000  -0.000   0.000  -0.000   0.000  -0.000  -0.000   0.000   0.000   0.000  -0.000   0.000
  0.000  -0.000  -0.000   0.000  -0.000   0.000  -0.000   0.000  -0.000   0.000   0.000  -0.000   0.000
 -0.000  -0.000   0.000  -0.000   0.000   0.000   0.000  -0.000   0.000  -0.000  -0.000   0.000  -0.000
 -0.000   0.000  -0.000   0.000  -0.000   0.000  -0.000   0.000  -0.000   0.000   0.000  -0.000   0.000
 total augmentation occupancy for first ion, spin component:           4
 -0.000  -0.000  -0.000   0.000  -0.000  -0.000   0.000   0.000  -0.000   0.000   0.000  -0.000  -0.000
 -0.000   0.000  -0.000  -0.000   0.000   0.000  -0.000  -0.000   0.000   0.000  -0.000   0.000   0.000
 -0.000  -0.000   0.000  -0.000  -0.000  -0.000   0.000   0.000  -0.000  -0.000   0.000  -0.000  -0.000
  0.000  -0.000  -0.000  -0.000   0.000   0.000  -0.000  -0.000  -0.000   0.000   0.000   0.000   0.000
 -0.000   0.000  -0.000   0.000  -0.000   0.000  -0.000  -0.000   0.000   0.000  -0.000   0.000   0.000
 -0.000   0.000  -0.000   0.000   0.000   0.000  -0.000  -0.000   0.000   0.000  -0.000   0.000   0.000
  0.000  -0.000   0.000  -0.000  -0.000  -0.000   0.000   0.000   0.000  -0.000  -0.000  -0.000  -0.000
  0.000  -0.000   0.000  -0.000  -0.000  -0.000   0.000   0.000   0.000  -0.000   0.000  -0.000  -0.000
 -0.000   0.000  -0.000  -0.000   0.000   0.000   0.000   0.000   0.000   0.000   0.000  -0.000  -0.000
  0.000   0.000  -0.000   0.000   0.000   0.000  -0.000  -0.000   0.000   0.000   0.000   0.000   0.000
  0.000  -0.000   0.000   0.000  -0.000  -0.000  -0.000   0.000   0.000   0.000   0.000  -0.000   0.000
 -0.000   0.000  -0.000   0.000   0.000   0.000  -0.000  -0.000  -0.000   0.000  -0.000   0.000  -0.000
 -0.000   0.000  -0.000   0.000   0.000   0.000  -0.000  -0.000  -0.000   0.000   0.000  -0.000   0.000


------------------------ aborting loop because EDIFF is reached ----------------------------------------


    FORLOC:  cpu time    0.0070: real time    0.0071
    FORHF :  cpu time 1354.6375: real time 1358.2461
    FORNL :  cpu time    1.2562: real time    1.2596
    FORCOR:  cpu time    0.3523: real time    0.3559
    OFIELD:  cpu time    0.0010: real time    0.0010

 VOLUME and BASIS-vectors are now :
 -----------------------------------------------------------------------------
  energy-cutoff  :      500.00
  volume of cell :      113.64
      direct lattice vectors                 reciprocal lattice vectors
     4.300140858  0.000000000  0.000000000     0.232550522  0.000000000  0.000000000
     0.000000000  4.300140858  0.000000000     0.000000000  0.232550522  0.000000000
     0.000000000  0.000000000  6.145861149     0.000000000  0.000000000  0.162711128

  length of vectors
     4.300140858  4.300140858  6.145861149     0.232550522  0.232550522  0.162711128


 FORCES acting on ions:
    Electron-Ion                     Ewald-Force                    Non-Local-Force
 -----------------------------------------------------------------------------------------------
   -.657E-08 0.125E-08 0.477E+02   0.261E-14 -.178E-15 -.473E+02   0.192E-08 -.262E-09 -.377E+00
   -.201E-08 0.346E-08 -.477E+02   -.168E-14 -.547E-14 0.473E+02   0.575E-09 -.126E-08 0.377E+00
   0.937E-08 -.274E-07 0.393E-05   -.341E-14 0.631E-14 0.425E-05   -.285E-07 0.727E-07 -.541E-05
   -.193E-07 0.265E-07 -.344E-05   0.139E-14 0.780E-16 0.515E-06   0.155E-07 -.211E-07 0.374E-05
 -----------------------------------------------------------------------------------------------
   0.106E-06 -.168E-06 0.122E-05   -.109E-14 0.740E-15 -.355E-14   -.105E-07 0.501E-07 0.113E-05
 
 
 POSITION                                       TOTAL-FORCE (eV/Angst)
 -----------------------------------------------------------------------------------
      2.15007      0.00000      4.46027        -0.000000      0.000000      0.013556
      0.00000      2.15007      1.68559        -0.000000      0.000000     -0.013558
      0.00000      0.00000      0.00000        -0.000000      0.000000      0.000001
      2.15007      2.15007      3.07293         0.000000     -0.000000      0.000000
 -----------------------------------------------------------------------------------
    total drift:                                0.000000     -0.000000      0.000002


--------------------------------------------------------------------------------------------------------



  FREE ENERGIE OF THE ION-ELECTRON SYSTEM (eV)
  ---------------------------------------------------
  free  energy   TOTEN  =       -18.38322273 eV

  energy  without entropy=      -18.38322273  energy(sigma->0) =      -18.38322273
 


--------------------------------------------------------------------------------------------------------


    POTLOK:  cpu time    0.3360: real time    0.3387


--------------------------------------------------------------------------------------------------------


     LOOP+:  cpu time20574.3454: real time20630.2934
    4ORBIT:  cpu time    0.0000: real time    0.0000

 Spin-Orbit-Coupling matrix elements

 Ion:    1  E_soc:     -0.0063488
 l=   1
     0.0000000    -0.0008587    -0.0012331
    -0.0008587     0.0000000    -0.0011139
    -0.0012331    -0.0011139     0.0000000
 l=   2
     0.0000000    -0.0000013     0.0000000     0.0000044    -0.0000029
    -0.0000013     0.0000000    -0.0000095     0.0000182    -0.0000009
     0.0000000    -0.0000095     0.0000000     0.0000168     0.0000000
     0.0000044     0.0000182     0.0000168     0.0000000     0.0000064
    -0.0000029    -0.0000009     0.0000000     0.0000064     0.0000000
 l=   3
     0.0000000     0.0000000     0.0000000     0.0000000     0.0000000     0.0000000     0.0000000
     0.0000000     0.0000000     0.0000000     0.0000000     0.0000000     0.0000000     0.0000000
     0.0000000     0.0000000     0.0000000     0.0000000     0.0000000     0.0000000     0.0000000
     0.0000000     0.0000000     0.0000000     0.0000000     0.0000000     0.0000000     0.0000000
     0.0000000     0.0000000     0.0000000     0.0000000     0.0000000     0.0000000     0.0000000
     0.0000000     0.0000000     0.0000000     0.0000000     0.0000000     0.0000000     0.0000000
     0.0000000     0.0000000     0.0000000     0.0000000     0.0000000     0.0000000     0.0000000

 Ion:    2  E_soc:     -0.0063488
 l=   1
     0.0000000    -0.0011139    -0.0012331
    -0.0011139     0.0000000    -0.0008587
    -0.0012331    -0.0008587     0.0000000
 l=   2
     0.0000000     0.0000044     0.0000000    -0.0000013    -0.0000029
     0.0000044     0.0000000     0.0000168     0.0000182     0.0000064
     0.0000000     0.0000168     0.0000000    -0.0000095     0.0000000
    -0.0000013     0.0000182    -0.0000095     0.0000000    -0.0000009
    -0.0000029     0.0000064     0.0000000    -0.0000009     0.0000000
 l=   3
     0.0000000     0.0000000     0.0000000     0.0000000     0.0000000     0.0000000     0.0000000
     0.0000000     0.0000000     0.0000000     0.0000000     0.0000000     0.0000000     0.0000000
     0.0000000     0.0000000     0.0000000     0.0000000     0.0000000     0.0000000     0.0000000
     0.0000000     0.0000000     0.0000000     0.0000000     0.0000000     0.0000000     0.0000000
     0.0000000     0.0000000     0.0000000     0.0000000     0.0000000     0.0000000     0.0000000
     0.0000000     0.0000000     0.0000000     0.0000000     0.0000000     0.0000000     0.0000000
     0.0000000     0.0000000     0.0000000     0.0000000     0.0000000     0.0000000     0.0000000

 Ion:    3  E_soc:     -1.4944434
 l=   1
     0.0000000    -0.1803255    -0.1927106
    -0.1803255     0.0000000    -0.1803251
    -0.1927106    -0.1803251     0.0000000
 l=   2
     0.0000000    -0.0128189     0.0000000    -0.0128190    -0.0511673
    -0.0128189     0.0000000    -0.0385497    -0.0133827    -0.0132865
     0.0000000    -0.0385497     0.0000000    -0.0385498     0.0000000
    -0.0128190    -0.0133827    -0.0385498     0.0000000    -0.0132865
    -0.0511673    -0.0132865     0.0000000    -0.0132865     0.0000000
 l=   3
     0.0000000     0.0000000     0.0000000     0.0000000     0.0000000     0.0000000     0.0000000
     0.0000000     0.0000000     0.0000000     0.0000000     0.0000000     0.0000000     0.0000000
     0.0000000     0.0000000     0.0000000     0.0000000     0.0000000     0.0000000     0.0000000
     0.0000000     0.0000000     0.0000000     0.0000000     0.0000000     0.0000000     0.0000000
     0.0000000     0.0000000     0.0000000     0.0000000     0.0000000     0.0000000     0.0000000
     0.0000000     0.0000000     0.0000000     0.0000000     0.0000000     0.0000000     0.0000000
     0.0000000     0.0000000     0.0000000     0.0000000     0.0000000     0.0000000     0.0000000

 Ion:    4  E_soc:     -0.0263054
 l=   1
     0.0000000    -0.0041718    -0.0047817
    -0.0041718     0.0000000    -0.0041718
    -0.0047817    -0.0041718     0.0000000
 l=   2
     0.0000000    -0.0000012     0.0000000    -0.0000012    -0.0000074
    -0.0000012     0.0000000    -0.0000067     0.0000008    -0.0000026
     0.0000000    -0.0000067     0.0000000    -0.0000067     0.0000000
    -0.0000012     0.0000008    -0.0000067     0.0000000    -0.0000026
    -0.0000074    -0.0000026     0.0000000    -0.0000026     0.0000000
 l=   3
     0.0000000     0.0000000     0.0000000     0.0000000     0.0000000     0.0000000     0.0000000
     0.0000000     0.0000000     0.0000000     0.0000000     0.0000000     0.0000000     0.0000000
     0.0000000     0.0000000     0.0000000     0.0000000     0.0000000     0.0000000     0.0000000
     0.0000000     0.0000000     0.0000000     0.0000000     0.0000000     0.0000000     0.0000000
     0.0000000     0.0000000     0.0000000     0.0000000     0.0000000     0.0000000     0.0000000
     0.0000000     0.0000000     0.0000000     0.0000000     0.0000000     0.0000000     0.0000000
     0.0000000     0.0000000     0.0000000     0.0000000     0.0000000     0.0000000     0.0000000

 total amount of memory used by VASP MPI-rank0    64826. kBytes
=======================================================================

   base      :      30000. kBytes
   nonlr-proj:       1614. kBytes
   fftplans  :        640. kBytes
   grid      :       1966. kBytes
   one-center:         62. kBytes
   HF        :         64. kBytes
   wavefun   :      30480. kBytes
 
  
  
 General timing and accounting informations for this job:
 ========================================================
  
                  Total CPU time used (sec):    20623.924
                            User time (sec):    20621.726
                          System time (sec):        2.198
                         Elapsed time (sec):    20680.531
  
                   Maximum memory used (kb):      239152.
                   Average memory used (kb):           0.
  
                          Minor page faults:        76375
                          Major page faults:            0
                 Voluntary context switches:         2545
