<?xml version="1.0" encoding="ISO-8859-1"?>
<modeling>
 <generator>
  <i name="program" type="string">vasp </i>
  <i name="version" type="string">5.4.4.18Apr17-6-g9f103f2a35  </i>
  <i name="subversion" type="string">(build Dec 27 2023 19:01:44) complex            parallel </i>
  <i name="platform" type="string">LinuxIFC </i>
  <i name="date" type="string">2020 08 23 </i>
  <i name="time" type="string">19:18:08 </i>
 </generator>
 <incar>
  <i type="string" name="SYSTEM"> Ga2BiAs</i>
  <i type="int" name="ISTART">     1</i>
  <i type="string" name="PREC">accurate</i>
  <i type="string" name="ALGO"> Damped</i>
  <i type="logical" name="LSORBIT"> T  </i>
  <v name="SAXIS">      0.00000000      0.00000000      1.00000000</v>
  <i type="int" name="ISPIN">     2</i>
  <i type="int" name="ICHARG">     2</i>
  <i name="EDIFF">      0.00001000</i>
  <i name="EDIFFG">     -0.01000000</i>
  <i name="ENCUT">    500.00000000</i>
  <i type="string" name="LREAL"> Auto</i>
  <i name="TIME">      0.40000000</i>
  <i type="int" name="ISMEAR">     0</i>
  <i name="SIGMA">      0.05000000</i>
  <i type="logical" name="LWAVE"> F  </i>
  <i type="logical" name="LCHARG"> F  </i>
  <v type="int" name="KPOINT_BSE">    -1     0     0     0</v>
  <i type="logical" name="LHFCALC"> T  </i>
  <i type="string" name="GGA"> PE</i>
  <i name="HFSCREEN">      0.20000000</i>
  <i name="AEXX">      0.25000000</i>
 </incar>
 <structure name="primitive_cell" >
  <crystal>
   <varray name="basis" >
    <v>       4.30014086       0.00000000       0.00000000 </v>
    <v>       0.00000000       4.30014086       0.00000000 </v>
    <v>       0.00000000       0.00000000       6.14586115 </v>
   </varray>
   <i name="volume">    113.64441771 </i>
   <varray name="rec_basis" >
    <v>       0.23255052       0.00000000       0.00000000 </v>
    <v>       0.00000000       0.23255052       0.00000000 </v>
    <v>       0.00000000       0.00000000       0.16271113 </v>
   </varray>
  </crystal>
  <varray name="positions" >
   <v>      -0.50000000       0.00000000      -0.27426398 </v>
   <v>      -0.50000000      -0.50000000      -0.50000000 </v>
   <v>       0.00000000       0.00000000       0.00000000 </v>
   <v>       0.00000000      -0.50000000       0.27426400 </v>
  </varray>
 </structure>
 <varray name="primitive_index" >
  <v type="int" >        1 </v>
  <v type="int" >        4 </v>
  <v type="int" >        3 </v>
  <v type="int" >        2 </v>
 </varray>
 <kpoints>
  <varray name="kpointlist" >
   <v>       0.00000000       0.00000000       0.00000000 </v>
   <v>       0.20000000       0.00000000       0.00000000 </v>
   <v>       0.40000000       0.00000000       0.00000000 </v>
   <v>      -0.40000000       0.00000000       0.00000000 </v>
   <v>      -0.20000000       0.00000000       0.00000000 </v>
   <v>       0.00000000       0.20000000       0.00000000 </v>
   <v>       0.20000000       0.20000000       0.00000000 </v>
   <v>       0.40000000       0.20000000       0.00000000 </v>
   <v>      -0.40000000       0.20000000       0.00000000 </v>
   <v>      -0.20000000       0.20000000       0.00000000 </v>
   <v>       0.00000000       0.40000000       0.00000000 </v>
   <v>       0.20000000       0.40000000       0.00000000 </v>
   <v>       0.40000000       0.40000000       0.00000000 </v>
   <v>      -0.40000000       0.40000000       0.00000000 </v>
   <v>      -0.20000000       0.40000000       0.00000000 </v>
   <v>       0.00000000      -0.40000000       0.00000000 </v>
   <v>       0.20000000      -0.40000000       0.00000000 </v>
   <v>       0.40000000      -0.40000000       0.00000000 </v>
   <v>      -0.40000000      -0.40000000       0.00000000 </v>
   <v>      -0.20000000      -0.40000000       0.00000000 </v>
   <v>       0.00000000      -0.20000000       0.00000000 </v>
   <v>       0.20000000      -0.20000000       0.00000000 </v>
   <v>       0.40000000      -0.20000000       0.00000000 </v>
   <v>      -0.40000000      -0.20000000       0.00000000 </v>
   <v>      -0.20000000      -0.20000000       0.00000000 </v>
   <v>       0.00000000       0.00000000       0.33333333 </v>
   <v>       0.20000000       0.00000000       0.33333333 </v>
   <v>       0.40000000       0.00000000       0.33333333 </v>
   <v>      -0.40000000       0.00000000       0.33333333 </v>
   <v>      -0.20000000       0.00000000       0.33333333 </v>
   <v>       0.00000000       0.20000000       0.33333333 </v>
   <v>       0.20000000       0.20000000       0.33333333 </v>
   <v>       0.40000000       0.20000000       0.33333333 </v>
   <v>      -0.40000000       0.20000000       0.33333333 </v>
   <v>      -0.20000000       0.20000000       0.33333333 </v>
   <v>       0.00000000       0.40000000       0.33333333 </v>
   <v>       0.20000000       0.40000000       0.33333333 </v>
   <v>       0.40000000       0.40000000       0.33333333 </v>
   <v>      -0.40000000       0.40000000       0.33333333 </v>
   <v>      -0.20000000       0.40000000       0.33333333 </v>
   <v>       0.00000000      -0.40000000       0.33333333 </v>
   <v>       0.20000000      -0.40000000       0.33333333 </v>
   <v>       0.40000000      -0.40000000       0.33333333 </v>
   <v>      -0.40000000      -0.40000000       0.33333333 </v>
   <v>      -0.20000000      -0.40000000       0.33333333 </v>
   <v>       0.00000000      -0.20000000       0.33333333 </v>
   <v>       0.20000000      -0.20000000       0.33333333 </v>
   <v>       0.40000000      -0.20000000       0.33333333 </v>
   <v>      -0.40000000      -0.20000000       0.33333333 </v>
   <v>      -0.20000000      -0.20000000       0.33333333 </v>
   <v>       0.00000000       0.00000000      -0.33333333 </v>
   <v>       0.20000000       0.00000000      -0.33333333 </v>
   <v>       0.40000000       0.00000000      -0.33333333 </v>
   <v>      -0.40000000       0.00000000      -0.33333333 </v>
   <v>      -0.20000000       0.00000000      -0.33333333 </v>
   <v>       0.00000000       0.20000000      -0.33333333 </v>
   <v>       0.20000000       0.20000000      -0.33333333 </v>
   <v>       0.40000000       0.20000000      -0.33333333 </v>
   <v>      -0.40000000       0.20000000      -0.33333333 </v>
   <v>      -0.20000000       0.20000000      -0.33333333 </v>
   <v>       0.00000000       0.40000000      -0.33333333 </v>
   <v>       0.20000000       0.40000000      -0.33333333 </v>
   <v>       0.40000000       0.40000000      -0.33333333 </v>
   <v>      -0.40000000       0.40000000      -0.33333333 </v>
   <v>      -0.20000000       0.40000000      -0.33333333 </v>
   <v>       0.00000000      -0.40000000      -0.33333333 </v>
   <v>       0.20000000      -0.40000000      -0.33333333 </v>
   <v>       0.40000000      -0.40000000      -0.33333333 </v>
   <v>      -0.40000000      -0.40000000      -0.33333333 </v>
   <v>      -0.20000000      -0.40000000      -0.33333333 </v>
   <v>       0.00000000      -0.20000000      -0.33333333 </v>
   <v>       0.20000000      -0.20000000      -0.33333333 </v>
   <v>       0.40000000      -0.20000000      -0.33333333 </v>
   <v>      -0.40000000      -0.20000000      -0.33333333 </v>
   <v>      -0.20000000      -0.20000000      -0.33333333 </v>
   <v>       0.50000000       0.50000000       0.00000000 </v>
   <v>       0.48571429       0.48571429       0.00000000 </v>
   <v>       0.47142857       0.47142857       0.00000000 </v>
   <v>       0.45714286       0.45714286       0.00000000 </v>
   <v>       0.44285714       0.44285714       0.00000000 </v>
   <v>       0.42857143       0.42857143       0.00000000 </v>
   <v>       0.41428571       0.41428571       0.00000000 </v>
   <v>       0.40000000       0.40000000       0.00000000 </v>
   <v>       0.38571429       0.38571429       0.00000000 </v>
   <v>       0.37142857       0.37142857       0.00000000 </v>
   <v>       0.35714286       0.35714286       0.00000000 </v>
   <v>       0.34285714       0.34285714       0.00000000 </v>
   <v>       0.32857143       0.32857143       0.00000000 </v>
   <v>       0.31428571       0.31428571       0.00000000 </v>
   <v>       0.30000000       0.30000000       0.00000000 </v>
   <v>       0.28571429       0.28571429       0.00000000 </v>
   <v>       0.27142857       0.27142857       0.00000000 </v>
   <v>       0.25714286       0.25714286       0.00000000 </v>
   <v>       0.24285714       0.24285714       0.00000000 </v>
   <v>       0.22857143       0.22857143       0.00000000 </v>
   <v>       0.21428571       0.21428571       0.00000000 </v>
   <v>       0.20000000       0.20000000       0.00000000 </v>
   <v>       0.18571429       0.18571429       0.00000000 </v>
   <v>       0.17142857       0.17142857       0.00000000 </v>
   <v>       0.15714286       0.15714286       0.00000000 </v>
   <v>       0.14285714       0.14285714       0.00000000 </v>
   <v>       0.12857143       0.12857143       0.00000000 </v>
   <v>       0.11428571       0.11428571       0.00000000 </v>
   <v>       0.10000000       0.10000000       0.00000000 </v>
   <v>       0.08571429       0.08571429       0.00000000 </v>
   <v>       0.07142857       0.07142857       0.00000000 </v>
   <v>       0.05714286       0.05714286       0.00000000 </v>
   <v>       0.04285714       0.04285714       0.00000000 </v>
   <v>       0.02857143       0.02857143       0.00000000 </v>
   <v>       0.01428571       0.01428571       0.00000000 </v>
   <v>       0.00000000       0.00000000       0.00000000 </v>
   <v>       0.00000000       0.00000000       0.00000000 </v>
   <v>       0.00000000       0.00000000       0.01428571 </v>
   <v>       0.00000000       0.00000000       0.02857143 </v>
   <v>       0.00000000       0.00000000       0.04285714 </v>
   <v>       0.00000000       0.00000000       0.05714286 </v>
   <v>       0.00000000       0.00000000       0.07142857 </v>
   <v>       0.00000000       0.00000000       0.08571429 </v>
   <v>       0.00000000       0.00000000       0.10000000 </v>
   <v>       0.00000000       0.00000000       0.11428571 </v>
   <v>       0.00000000       0.00000000       0.12857143 </v>
   <v>       0.00000000       0.00000000       0.14285714 </v>
   <v>       0.00000000       0.00000000       0.15714286 </v>
   <v>       0.00000000       0.00000000       0.17142857 </v>
   <v>       0.00000000       0.00000000       0.18571429 </v>
   <v>       0.00000000       0.00000000       0.20000000 </v>
   <v>       0.00000000       0.00000000       0.21428571 </v>
   <v>       0.00000000       0.00000000       0.22857143 </v>
   <v>       0.00000000       0.00000000       0.24285714 </v>
   <v>       0.00000000       0.00000000       0.25714286 </v>
   <v>       0.00000000       0.00000000       0.27142857 </v>
   <v>       0.00000000       0.00000000       0.28571429 </v>
   <v>       0.00000000       0.00000000       0.30000000 </v>
   <v>       0.00000000       0.00000000       0.31428571 </v>
   <v>       0.00000000       0.00000000       0.32857143 </v>
   <v>       0.00000000       0.00000000       0.34285714 </v>
   <v>       0.00000000       0.00000000       0.35714286 </v>
   <v>       0.00000000       0.00000000       0.37142857 </v>
   <v>       0.00000000       0.00000000       0.38571429 </v>
   <v>       0.00000000       0.00000000       0.40000000 </v>
   <v>       0.00000000       0.00000000       0.41428571 </v>
   <v>       0.00000000       0.00000000       0.42857143 </v>
   <v>       0.00000000       0.00000000       0.44285714 </v>
   <v>       0.00000000       0.00000000       0.45714286 </v>
   <v>       0.00000000       0.00000000       0.47142857 </v>
   <v>       0.00000000       0.00000000       0.48571429 </v>
   <v>       0.00000000       0.00000000       0.50000000 </v>
  </varray>
  <varray name="weights" >
   <v>       0.01333333 </v>
   <v>       0.01333333 </v>
   <v>       0.01333333 </v>
   <v>       0.01333333 </v>
   <v>       0.01333333 </v>
   <v>       0.01333333 </v>
   <v>       0.01333333 </v>
   <v>       0.01333333 </v>
   <v>       0.01333333 </v>
   <v>       0.01333333 </v>
   <v>       0.01333333 </v>
   <v>       0.01333333 </v>
   <v>       0.01333333 </v>
   <v>       0.01333333 </v>
   <v>       0.01333333 </v>
   <v>       0.01333333 </v>
   <v>       0.01333333 </v>
   <v>       0.01333333 </v>
   <v>       0.01333333 </v>
   <v>       0.01333333 </v>
   <v>       0.01333333 </v>
   <v>       0.01333333 </v>
   <v>       0.01333333 </v>
   <v>       0.01333333 </v>
   <v>       0.01333333 </v>
   <v>       0.01333333 </v>
   <v>       0.01333333 </v>
   <v>       0.01333333 </v>
   <v>       0.01333333 </v>
   <v>       0.01333333 </v>
   <v>       0.01333333 </v>
   <v>       0.01333333 </v>
   <v>       0.01333333 </v>
   <v>       0.01333333 </v>
   <v>       0.01333333 </v>
   <v>       0.01333333 </v>
   <v>       0.01333333 </v>
   <v>       0.01333333 </v>
   <v>       0.01333333 </v>
   <v>       0.01333333 </v>
   <v>       0.01333333 </v>
   <v>       0.01333333 </v>
   <v>       0.01333333 </v>
   <v>       0.01333333 </v>
   <v>       0.01333333 </v>
   <v>       0.01333333 </v>
   <v>       0.01333333 </v>
   <v>       0.01333333 </v>
   <v>       0.01333333 </v>
   <v>       0.01333333 </v>
   <v>       0.01333333 </v>
   <v>       0.01333333 </v>
   <v>       0.01333333 </v>
   <v>       0.01333333 </v>
   <v>       0.01333333 </v>
   <v>       0.01333333 </v>
   <v>       0.01333333 </v>
   <v>       0.01333333 </v>
   <v>       0.01333333 </v>
   <v>       0.01333333 </v>
   <v>       0.01333333 </v>
   <v>       0.01333333 </v>
   <v>       0.01333333 </v>
   <v>       0.01333333 </v>
   <v>       0.01333333 </v>
   <v>       0.01333333 </v>
   <v>       0.01333333 </v>
   <v>       0.01333333 </v>
   <v>       0.01333333 </v>
   <v>       0.01333333 </v>
   <v>       0.01333333 </v>
   <v>       0.01333333 </v>
   <v>       0.01333333 </v>
   <v>       0.01333333 </v>
   <v>       0.01333333 </v>
   <v>       0.00000000 </v>
   <v>       0.00000000 </v>
   <v>       0.00000000 </v>
   <v>       0.00000000 </v>
   <v>       0.00000000 </v>
   <v>       0.00000000 </v>
   <v>       0.00000000 </v>
   <v>       0.00000000 </v>
   <v>       0.00000000 </v>
   <v>       0.00000000 </v>
   <v>       0.00000000 </v>
   <v>       0.00000000 </v>
   <v>       0.00000000 </v>
   <v>       0.00000000 </v>
   <v>       0.00000000 </v>
   <v>       0.00000000 </v>
   <v>       0.00000000 </v>
   <v>       0.00000000 </v>
   <v>       0.00000000 </v>
   <v>       0.00000000 </v>
   <v>       0.00000000 </v>
   <v>       0.00000000 </v>
   <v>       0.00000000 </v>
   <v>       0.00000000 </v>
   <v>       0.00000000 </v>
   <v>       0.00000000 </v>
   <v>       0.00000000 </v>
   <v>       0.00000000 </v>
   <v>       0.00000000 </v>
   <v>       0.00000000 </v>
   <v>       0.00000000 </v>
   <v>       0.00000000 </v>
   <v>       0.00000000 </v>
   <v>       0.00000000 </v>
   <v>       0.00000000 </v>
   <v>       0.00000000 </v>
   <v>       0.00000000 </v>
   <v>       0.00000000 </v>
   <v>       0.00000000 </v>
   <v>       0.00000000 </v>
   <v>       0.00000000 </v>
   <v>       0.00000000 </v>
   <v>       0.00000000 </v>
   <v>       0.00000000 </v>
   <v>       0.00000000 </v>
   <v>       0.00000000 </v>
   <v>       0.00000000 </v>
   <v>       0.00000000 </v>
   <v>       0.00000000 </v>
   <v>       0.00000000 </v>
   <v>       0.00000000 </v>
   <v>       0.00000000 </v>
   <v>       0.00000000 </v>
   <v>       0.00000000 </v>
   <v>       0.00000000 </v>
   <v>       0.00000000 </v>
   <v>       0.00000000 </v>
   <v>       0.00000000 </v>
   <v>       0.00000000 </v>
   <v>       0.00000000 </v>
   <v>       0.00000000 </v>
   <v>       0.00000000 </v>
   <v>       0.00000000 </v>
   <v>       0.00000000 </v>
   <v>       0.00000000 </v>
   <v>       0.00000000 </v>
   <v>       0.00000000 </v>
   <v>       0.00000000 </v>
   <v>       0.00000000 </v>
   <v>       0.00000000 </v>
   <v>       0.00000000 </v>
   <v>       0.00000000 </v>
  </varray>
 </kpoints>
 <parameters>
  <separator name="general" >
   <i type="string" name="SYSTEM">Ga2BiAs</i>
   <i type="logical" name="LCOMPAT"> F  </i>
  </separator>
  <separator name="electronic" >
   <i type="string" name="PREC">accura</i>
   <i name="ENMAX">    500.00000000</i>
   <i name="ENAUG">    462.75800000</i>
   <i name="EDIFF">      0.00001000</i>
   <i type="int" name="IALGO">    53</i>
   <i type="int" name="IWAVPR">    10</i>
   <i type="int" name="NBANDS">    40</i>
   <i name="NELECT">     26.00000000</i>
   <i type="int" name="TURBO">     0</i>
   <i type="int" name="IRESTART">     0</i>
   <i type="int" name="NREBOOT">     0</i>
   <i type="int" name="NMIN">     0</i>
   <i name="EREF">      0.00000000</i>
   <separator name="electronic smearing" >
    <i type="int" name="ISMEAR">     0</i>
    <i name="SIGMA">      0.05000000</i>
    <i name="KSPACING">      0.50000000</i>
    <i type="logical" name="KGAMMA"> T  </i>
   </separator>
   <separator name="electronic projectors" >
    <i type="logical" name="LREAL"> T  </i>
    <v name="ROPT">     -0.00025000     -0.00025000     -0.00025000</v>
    <i type="int" name="LMAXPAW">  -100</i>
    <i type="int" name="LMAXMIX">     2</i>
    <i type="logical" name="NLSPLINE"> F  </i>
   </separator>
   <separator name="electronic startup" >
    <i type="int" name="ISTART">     1</i>
    <i type="int" name="ICHARG">     2</i>
    <i type="int" name="INIWAV">     1</i>
   </separator>
   <separator name="electronic spin" >
    <i type="int" name="ISPIN">     1</i>
    <i type="logical" name="LNONCOLLINEAR"> T  </i>
    <v name="MAGMOM">      1.00000000      1.00000000      1.00000000      1.00000000      1.00000000      1.00000000      1.00000000      1.00000000      1.00000000      1.00000000      1.00000000      1.00000000</v>
    <i name="NUPDOWN">     -1.00000000</i>
    <i type="logical" name="LSORBIT"> T  </i>
    <v name="SAXIS">      0.00000000      0.00000000      1.00000000</v>
    <i type="logical" name="LSPIRAL"> F  </i>
    <v name="QSPIRAL">      0.00000000      0.00000000      0.00000000</v>
    <i type="logical" name="LZEROZ"> F  </i>
   </separator>
   <separator name="electronic exchange-correlation" >
    <i type="logical" name="LASPH"> F  </i>
    <i type="logical" name="LMETAGGA"> F  </i>
   </separator>
   <separator name="electronic convergence" >
    <i type="int" name="NELM">    60</i>
    <i type="int" name="NELMDL">     0</i>
    <i type="int" name="NELMIN">     2</i>
    <i name="ENINI">    500.00000000</i>
    <separator name="electronic convergence detail" >
     <i type="logical" name="LDIAG"> T  </i>
     <i type="logical" name="LSUBROT"> F  </i>
     <i name="WEIMIN">      0.00000000</i>
     <i name="EBREAK">      0.00000006</i>
     <i name="DEPER">      0.30000000</i>
     <i type="int" name="NRMM">     4</i>
     <i name="TIME">      0.40000000</i>
    </separator>
   </separator>
   <separator name="electronic mixer" >
    <i name="AMIX">      0.40000000</i>
    <i name="BMIX">      1.00000000</i>
    <i name="AMIN">      0.10000000</i>
    <i name="AMIX_MAG">      1.60000000</i>
    <i name="BMIX_MAG">      1.00000000</i>
    <separator name="electronic mixer details" >
     <i type="int" name="IMIX">     4</i>
     <i type="logical" name="MIXFIRST"> F  </i>
     <i type="int" name="MAXMIX">   -45</i>
     <i name="WC">    100.00000000</i>
     <i type="int" name="INIMIX">     1</i>
     <i type="int" name="MIXPRE">     1</i>
     <i type="int" name="MREMOVE">     5</i>
    </separator>
   </separator>
   <separator name="electronic dipolcorrection" >
    <i type="logical" name="LDIPOL"> F  </i>
    <i type="logical" name="LMONO"> F  </i>
    <i type="int" name="IDIPOL">     0</i>
    <i name="EPSILON">      1.00000000</i>
    <v name="DIPOL">   -100.00000000   -100.00000000   -100.00000000</v>
    <i name="EFIELD">      0.00000000</i>
   </separator>
  </separator>
  <separator name="grids" >
   <i type="int" name="NGX">    32</i>
   <i type="int" name="NGY">    32</i>
   <i type="int" name="NGZ">    48</i>
   <i type="int" name="NGXF">    64</i>
   <i type="int" name="NGYF">    64</i>
   <i type="int" name="NGZF">    96</i>
   <i type="logical" name="ADDGRID"> F  </i>
  </separator>
  <separator name="ionic" >
   <i type="int" name="NSW">     0</i>
   <i type="int" name="IBRION">    -1</i>
   <i type="int" name="MDALGO">     0</i>
   <i type="int" name="ISIF">     0</i>
   <i name="PSTRESS">      0.00000000</i>
   <i name="EDIFFG">     -0.01000000</i>
   <i type="int" name="NFREE">     0</i>
   <i name="POTIM">      0.50000000</i>
   <i name="SMASS">     -3.00000000</i>
   <i name="SCALEE">      1.00000000</i>
  </separator>
  <separator name="ionic md" >
   <i name="TEBEG">      0.00010000</i>
   <i name="TEEND">      0.00010000</i>
   <i type="int" name="NBLOCK">     1</i>
   <i type="int" name="KBLOCK">     1</i>
   <i type="int" name="NPACO">   256</i>
   <i name="APACO">     16.00000000</i>
  </separator>
  <separator name="symmetry" >
   <i type="int" name="ISYM">     3</i>
   <i name="SYMPREC">      0.00001000</i>
  </separator>
  <separator name="dos" >
   <i type="int" name="LORBIT">     0</i>
   <v name="RWIGS">     -1.00000000     -1.00000000     -1.00000000</v>
   <i type="int" name="NEDOS">   301</i>
   <i name="EMIN">     10.00000000</i>
   <i name="EMAX">    -10.00000000</i>
   <i name="EFERMI">      0.00000000</i>
  </separator>
  <separator name="writing" >
   <i type="int" name="NWRITE">     2</i>
   <i type="logical" name="LWAVE"> F  </i>
   <i type="logical" name="LDOWNSAMPLE"> F  </i>
   <i type="logical" name="LCHARG"> F  </i>
   <i type="logical" name="LPARD"> F  </i>
   <i type="logical" name="LVTOT"> F  </i>
   <i type="logical" name="LVHAR"> F  </i>
   <i type="logical" name="LELF"> F  </i>
   <i type="logical" name="LOPTICS"> F  </i>
   <v name="STM">      0.00000000      0.00000000      0.00000000      0.00000000      0.00000000      0.00000000      0.00000000</v>
  </separator>
  <separator name="performance" >
   <i type="int" name="NPAR">     4</i>
   <i type="int" name="NSIM">     4</i>
   <i type="int" name="NBLK">    -1</i>
   <i type="logical" name="LPLANE"> T  </i>
   <i type="logical" name="LSCALAPACK"> T  </i>
   <i type="logical" name="LSCAAWARE"> F  </i>
   <i type="logical" name="LSCALU"> F  </i>
   <i type="logical" name="LASYNC"> F  </i>
   <i type="logical" name="LORBITALREAL"> F  </i>
  </separator>
  <separator name="miscellaneous" >
   <i type="int" name="IDIOT">     3</i>
   <i type="int" name="ISPECIAL">     0</i>
   <i type="logical" name="LMUSIC"> F  </i>
   <v name="POMASS">     69.72300000    208.98000000     74.92200000</v>
   <v name="DARWINR">      0.00000000      0.00000000      0.00000000</v>
   <v name="DARWINV">      1.00000000      1.00000000      1.00000000</v>
   <i type="logical" name="LCORR"> T  </i>
  </separator>
  <i type="logical" name="GGA_COMPAT"> T  </i>
  <i type="logical" name="LBERRY"> F  </i>
  <i type="int" name="ICORELEVEL">     0</i>
  <i type="logical" name="LDAU"> F  </i>
  <i type="int" name="I_CONSTRAINED_M">     0</i>
  <separator name="electronic exchange-correlation" >
   <i type="string" name="GGA">PE</i>
   <i type="int" name="VOSKOWN">     0</i>
   <i type="logical" name="LHFCALC"> T  </i>
   <i type="string" name="PRECFOCK">normal</i>
   <i type="logical" name="LSYMGRAD"> F  </i>
   <i type="logical" name="LHFONE"> F  </i>
   <i type="logical" name="LRHFCALC"> F  </i>
   <i type="logical" name="LTHOMAS"> F  </i>
   <i type="logical" name="LMODELHF"> F  </i>
   <i name="ENCUT4O">     -1.00000000</i>
   <i type="int" name="EXXOEP">     0</i>
   <i type="int" name="FOURORBIT">     0</i>
   <i name="AEXX">      0.25000000</i>
   <i name="HFALPHA">     -1.00000000</i>
   <i name="MCALPHA">      0.00000000</i>
   <i name="ALDAX">      0.75000000</i>
   <i name="AGGAX">      0.75000000</i>
   <i name="ALDAC">      1.00000000</i>
   <i name="AGGAC">      1.00000000</i>
   <i type="int" name="NKREDX">     1</i>
   <i type="int" name="NKREDY">     1</i>
   <i type="int" name="NKREDZ">     1</i>
   <i type="logical" name="SHIFTRED"> F  </i>
   <i type="logical" name="ODDONLY"> F  </i>
   <i type="logical" name="EVENONLY"> F  </i>
   <i type="int" name="LMAXFOCK">     4</i>
   <i type="int" name="NMAXFOCKAE">     1</i>
   <i type="logical" name="LFOCKAEDFT"> F  </i>
   <i name="HFSCREEN">      0.20000000</i>
   <i name="HFSCREENC">      0.20000000</i>
   <i type="int" name="NBANDSGWLOW">     1</i>
  </separator>
  <separator name="vdW DFT" >
   <i type="logical" name="LUSE_VDW"> F  </i>
   <i name="Zab_VDW">     -0.84910000</i>
   <i name="PARAM1">      0.12340000</i>
   <i name="PARAM2">      1.00000000</i>
   <i name="PARAM3">      0.00000000</i>
  </separator>
  <separator name="model GW" >
   <i type="int" name="MODEL_GW">     0</i>
   <i name="MODEL_EPS0">     17.04666266</i>
   <i name="MODEL_ALPHA">      1.00000000</i>
  </separator>
  <separator name="linear response parameters" >
   <i type="logical" name="LEPSILON"> F  </i>
   <i type="logical" name="LRPA"> F  </i>
   <i type="logical" name="LNABLA"> F  </i>
   <i type="logical" name="LVEL"> F  </i>
   <i type="int" name="KINTER">     0</i>
   <i name="CSHIFT">      0.10000000</i>
   <i name="OMEGAMAX">     -1.00000000</i>
   <i name="DEG_THRESHOLD">      0.00200000</i>
   <i name="RTIME">     -0.10000000</i>
   <i name="WPLASMAI">      0.00000000</i>
   <v name="DFIELD">      0.00000000      0.00000000      0.00000000</v>
   <v name="WPLASMA">      0.00000000      0.00000000      0.00000000      0.00000000      0.00000000      0.00000000      0.00000000      0.00000000      0.00000000</v>
  </separator>
  <separator name="orbital magnetization" >
   <i type="logical" name="NUCIND"> F  </i>
   <v name="MAGPOS">      0.00000000      0.00000000      0.00000000</v>
   <i type="logical" name="LNICSALL"> T  </i>
   <i type="logical" name="ORBITALMAG"> F  </i>
   <i type="logical" name="LMAGBLOCH"> F  </i>
   <i type="logical" name="LCHIMAG"> F  </i>
   <i type="logical" name="LGAUGE"> T  </i>
   <i type="int" name="MAGATOM">     0</i>
   <v name="MAGDIPOL">      0.00000000      0.00000000      0.00000000</v>
   <v name="AVECCONST">      0.00000000      0.00000000      0.00000000</v>
  </separator>
  <separator name="response functions" >
   <i type="logical" name="LADDER"> F  </i>
   <i type="logical" name="LRPAFORCE"> F  </i>
   <i type="logical" name="LFXC"> F  </i>
   <i type="logical" name="LHARTREE"> T  </i>
   <i type="int" name="IBSE">     0</i>
   <v type="int" name="KPOINT">    -1     0     0     0</v>
   <i type="logical" name="LTCTE"> F  </i>
   <i type="logical" name="LTETE"> F  </i>
   <i type="logical" name="LTRIPLET"> F  </i>
   <i type="logical" name="LFXCEPS"> F  </i>
   <i type="logical" name="LFXHEG"> F  </i>
   <i type="int" name="NATURALO">     2</i>
   <i type="logical" name="L2ORDER"> F  </i>
   <i type="logical" name="LMP2LT"> F  </i>
   <i type="logical" name="LUSEW"> F  </i>
   <i name="ENCUTGW">     -2.00000000</i>
   <i name="ENCUTGWSOFT">     -2.00000000</i>
   <i name="ENCUTLF">     -1.00000000</i>
   <i type="int" name="LMAXMP2">    -1</i>
   <i name="SCISSOR">      0.00000000</i>
   <i type="int" name="NOMEGA">     0</i>
   <i type="int" name="NOMEGAR">     0</i>
   <i type="int" name="NBANDSGW">    -1</i>
   <i type="int" name="NBANDSO">    -1</i>
   <i type="int" name="NBANDSV">    -1</i>
   <i type="int" name="NELM">     1</i>
   <i type="int" name="NELMHF">     1</i>
   <i type="int" name="DIM">     3</i>
   <i type="int" name="ANTIRES">     0</i>
   <i name="OMEGAMAX">    -30.00000000</i>
   <i name="OMEGAMIN">    -30.00000000</i>
   <i name="OMEGATL">   -200.00000000</i>
   <i type="int" name="OMEGAGRID">   140</i>
   <i name="CSHIFT">     -0.10000000</i>
   <i type="logical" name="SELFENERGY"> F  </i>
   <i type="logical" name="LSPECTRAL"> F  </i>
   <i type="logical" name="LSPECTRALGW"> F  </i>
   <i type="logical" name="LSINGLES"> F  </i>
   <i type="logical" name="LFERMIGW"> F  </i>
   <i type="logical" name="ODDONLYGW"> F  </i>
   <i type="logical" name="EVENONLYGW"> F  </i>
   <i type="int" name="NKREDLFX">     1</i>
   <i type="int" name="NKREDLFY">     1</i>
   <i type="int" name="NKREDLFZ">     1</i>
   <i type="int" name="MAXMEM">  2800</i>
   <i type="int" name="TELESCOPE">     0</i>
   <i type="int" name="TAUPAR">     1</i>
   <i type="int" name="OMEGAPAR">    -1</i>
   <i name="LAMBDA">      1.00000000</i>
  </separator>
  <separator name="External order field" >
   <i name="OFIELD_KAPPA">      0.00000000</i>
   <v name="OFIELD_K">      0.00000000      0.00000000      0.00000000</v>
   <i name="OFIELD_Q6_NEAR">      0.00000000</i>
   <i name="OFIELD_Q6_FAR">      0.00000000</i>
   <i name="OFIELD_A">      0.00000000</i>
  </separator>
 </parameters>
 <atominfo>
  <atoms>       4 </atoms>
  <types>       3 </types>
  <array name="atoms" >
   <dimension dim="1">ion</dimension>
   <field type="string">element</field>
   <field type="int">atomtype</field>
   <set>
    <rc><c>Ga</c><c>   1</c></rc>
    <rc><c>Ga</c><c>   1</c></rc>
    <rc><c>Bi</c><c>   2</c></rc>
    <rc><c>As</c><c>   3</c></rc>
   </set>
  </array>
  <array name="atomtypes" >
   <dimension dim="1">type</dimension>
   <field type="int">atomspertype</field>
   <field type="string">element</field>
   <field>mass</field>
   <field>valence</field>
   <field type="string">pseudopotential</field>
   <set>
    <rc><c>   2</c><c>Ga</c><c>     69.72300000</c><c>      3.00000000</c><c>  PAW_PBE Ga 08Apr2002                  </c></rc>
    <rc><c>   1</c><c>Bi</c><c>    208.98000000</c><c>     15.00000000</c><c>  PAW_PBE Bi_d 06Sep2000                </c></rc>
    <rc><c>   1</c><c>As</c><c>     74.92200000</c><c>      5.00000000</c><c>  PAW_PBE As 22Sep2009                  </c></rc>
   </set>
  </array>
 </atominfo>
 <structure name="initialpos" >
  <crystal>
   <varray name="basis" >
    <v>       4.30014086       0.00000000       0.00000000 </v>
    <v>       0.00000000       4.30014086       0.00000000 </v>
    <v>       0.00000000       0.00000000       6.14586115 </v>
   </varray>
   <i name="volume">    113.64441771 </i>
   <varray name="rec_basis" >
    <v>       0.23255052       0.00000000       0.00000000 </v>
    <v>       0.00000000       0.23255052       0.00000000 </v>
    <v>       0.00000000       0.00000000       0.16271113 </v>
   </varray>
  </crystal>
  <varray name="positions" >
   <v>       0.50000000       0.00000000       0.72573602 </v>
   <v>       0.00000000       0.50000000       0.27426400 </v>
   <v>       0.00000000       0.00000000       0.00000000 </v>
   <v>       0.50000000       0.50000000       0.50000000 </v>
  </varray>
 </structure>
 <calculation>
  <scstep>
   <time name="total"> 1277.30 1280.04</time>
   <energy>
    <i name="alphaZ">     64.20128509 </i>
    <i name="ewald">  -1439.91766544 </i>
    <i name="hartreedc">   -754.80137001 </i>
    <i name="XCdc">     -3.49306771 </i>
    <i name="pawpsdc">   2407.75234148 </i>
    <i name="pawaedc">  -2323.58185883 </i>
    <i name="eentropy">     -0.00113148 </i>
    <i name="bandstr">   -261.22233123 </i>
    <i name="atom">   2243.82239720 </i>
    <i name="e_fr_energy">    -18.21707394 </i>
    <i name="e_wo_entrp">    -18.21594246 </i>
    <i name="e_0_energy">    -18.21650820 </i>
   </energy>
  </scstep>
  <scstep>
   <time name="total"> 1285.44 1288.02</time>
   <energy>
    <i name="e_fr_energy">    -18.31240104 </i>
    <i name="e_wo_entrp">    -18.31208956 </i>
    <i name="e_0_energy">    -18.31224530 </i>
   </energy>
  </scstep>
  <scstep>
   <time name="total"> 1289.45 1292.22</time>
   <energy>
    <i name="e_fr_energy">    -18.35839237 </i>
    <i name="e_wo_entrp">    -18.35836367 </i>
    <i name="e_0_energy">    -18.35837802 </i>
   </energy>
  </scstep>
  <scstep>
   <time name="total"> 1260.12 1262.86</time>
   <energy>
    <i name="e_fr_energy">    -18.37007361 </i>
    <i name="e_wo_entrp">    -18.37007207 </i>
    <i name="e_0_energy">    -18.37007284 </i>
   </energy>
  </scstep>
  <scstep>
   <time name="total"> 1290.18 1293.68</time>
   <energy>
    <i name="e_fr_energy">    -18.37593257 </i>
    <i name="e_wo_entrp">    -18.37593248 </i>
    <i name="e_0_energy">    -18.37593252 </i>
   </energy>
  </scstep>
  <scstep>
   <time name="total"> 1296.21 1299.75</time>
   <energy>
    <i name="e_fr_energy">    -18.37972307 </i>
    <i name="e_wo_entrp">    -18.37972306 </i>
    <i name="e_0_energy">    -18.37972306 </i>
   </energy>
  </scstep>
  <scstep>
   <time name="total"> 1281.41 1285.20</time>
   <energy>
    <i name="e_fr_energy">    -18.38162547 </i>
    <i name="e_wo_entrp">    -18.38162547 </i>
    <i name="e_0_energy">    -18.38162547 </i>
   </energy>
  </scstep>
  <scstep>
   <time name="total"> 1294.58 1299.30</time>
   <energy>
    <i name="e_fr_energy">    -18.38249919 </i>
    <i name="e_wo_entrp">    -18.38249919 </i>
    <i name="e_0_energy">    -18.38249919 </i>
   </energy>
  </scstep>
  <scstep>
   <time name="total"> 1285.68 1289.16</time>
   <energy>
    <i name="e_fr_energy">    -18.38288961 </i>
    <i name="e_wo_entrp">    -18.38288961 </i>
    <i name="e_0_energy">    -18.38288961 </i>
   </energy>
  </scstep>
  <scstep>
   <time name="total"> 1274.76 1278.40</time>
   <energy>
    <i name="e_fr_energy">    -18.38307103 </i>
    <i name="e_wo_entrp">    -18.38307103 </i>
    <i name="e_0_energy">    -18.38307103 </i>
   </energy>
  </scstep>
  <scstep>
   <time name="total"> 1273.41 1277.42</time>
   <energy>
    <i name="e_fr_energy">    -18.38315625 </i>
    <i name="e_wo_entrp">    -18.38315625 </i>
    <i name="e_0_energy">    -18.38315625 </i>
   </energy>
  </scstep>
  <scstep>
   <time name="total"> 1251.04 1255.27</time>
   <energy>
    <i name="e_fr_energy">    -18.38319514 </i>
    <i name="e_wo_entrp">    -18.38319514 </i>
    <i name="e_0_energy">    -18.38319514 </i>
   </energy>
  </scstep>
  <scstep>
   <time name="total"> 1286.94 1290.34</time>
   <energy>
    <i name="e_fr_energy">    -18.38321357 </i>
    <i name="e_wo_entrp">    -18.38321357 </i>
    <i name="e_0_energy">    -18.38321357 </i>
   </energy>
  </scstep>
  <scstep>
   <time name="total"> 2571.21 2578.37</time>
   <energy>
    <i name="alphaZ">     64.20128509 </i>
    <i name="ewald">  -1439.91766544 </i>
    <i name="hartreedc">   -756.32429280 </i>
    <i name="XCdc">     -3.29833079 </i>
    <i name="pawpsdc">   2659.29695587 </i>
    <i name="pawaedc">  -2574.87596074 </i>
    <i name="eentropy">     -0.00000000 </i>
    <i name="bandstr">   -260.44773461 </i>
    <i name="atom">   2243.82239720 </i>
    <i name="e_fr_energy">    -18.38322273 </i>
    <i name="e_wo_entrp">    -18.38322273 </i>
    <i name="e_0_energy">    -18.38322273 </i>
   </energy>
  </scstep>
  <structure>
   <crystal>
    <varray name="basis" >
     <v>       4.30014086       0.00000000       0.00000000 </v>
     <v>       0.00000000       4.30014086       0.00000000 </v>
     <v>       0.00000000       0.00000000       6.14586115 </v>
    </varray>
    <i name="volume">    113.64441771 </i>
    <varray name="rec_basis" >
     <v>       0.23255052       0.00000000       0.00000000 </v>
     <v>       0.00000000       0.23255052       0.00000000 </v>
     <v>       0.00000000       0.00000000       0.16271113 </v>
    </varray>
   </crystal>
   <varray name="positions" >
    <v>       0.50000000       0.00000000       0.72573602 </v>
    <v>       0.00000000       0.50000000       0.27426400 </v>
    <v>       0.00000000       0.00000000       0.00000000 </v>
    <v>       0.50000000       0.50000000       0.50000000 </v>
   </varray>
  </structure>
  <varray name="forces" >
   <v>      -0.00000003       0.00000003       0.01355645 </v>
   <v>      -0.00000003       0.00000003      -0.01355761 </v>
   <v>      -0.00000004       0.00000007       0.00000082 </v>
   <v>       0.00000009      -0.00000013       0.00000035 </v>
  </varray>
  <energy>
   <i name="e_fr_energy">    -18.38322273 </i>
   <i name="e_wo_entrp">    -18.38322273 </i>
   <i name="e_0_energy">     -0.00000000 </i>
  </energy>
  <time name="totalsc">20574.3520630.29</time>
  <eigenvalues>
   <array>
    <dimension dim="1">band</dimension>
    <dimension dim="2">kpoint</dimension>
    <dimension dim="3">spin</dimension>
    <field>eigene</field>
    <field>occ</field>
    <set>
     <set comment="spin 1">
      <set comment="kpoint 1">
       <r>  -23.1581    1.0000 </r>
       <r>  -23.1581    1.0000 </r>
       <r>  -23.1547    1.0000 </r>
       <r>  -23.1547    1.0000 </r>
       <r>  -20.0768    1.0000 </r>
       <r>  -20.0768    1.0000 </r>
       <r>  -20.0575    1.0000 </r>
       <r>  -20.0575    1.0000 </r>
       <r>  -20.0476    1.0000 </r>
       <r>  -20.0476    1.0000 </r>
       <r>  -10.7051    1.0000 </r>
       <r>  -10.7051    1.0000 </r>
       <r>   -8.6670    1.0000 </r>
       <r>   -8.6670    1.0000 </r>
       <r>   -4.5569    1.0000 </r>
       <r>   -4.5569    1.0000 </r>
       <r>   -0.3397    1.0000 </r>
       <r>   -0.3397    1.0000 </r>
       <r>   -0.0254    1.0000 </r>
       <r>   -0.0254    1.0000 </r>
       <r>    1.7500    1.0000 </r>
       <r>    1.7500    1.0000 </r>
       <r>    1.9996    1.0000 </r>
       <r>    1.9996    1.0000 </r>
       <r>    3.0228    1.0000 </r>
       <r>    3.0228    1.0000 </r>
       <r>    3.3746    0.0000 </r>
       <r>    3.3746    0.0000 </r>
       <r>    4.3527    0.0000 </r>
       <r>    4.3527    0.0000 </r>
       <r>    4.5720    0.0000 </r>
       <r>    4.5720    0.0000 </r>
       <r>    6.3481    0.0000 </r>
       <r>    6.3481    0.0000 </r>
       <r>    6.5931    0.0000 </r>
       <r>    6.5931    0.0000 </r>
       <r>    6.7343    0.0000 </r>
       <r>    6.7343    0.0000 </r>
       <r>    9.3493    0.0000 </r>
       <r>    9.3493    0.0000 </r>
      </set>
      <set comment="kpoint 2">
       <r>  -23.1594    1.0000 </r>
       <r>  -23.1582    1.0000 </r>
       <r>  -23.1545    1.0000 </r>
       <r>  -23.1519    1.0000 </r>
       <r>  -20.0784    1.0000 </r>
       <r>  -20.0722    1.0000 </r>
       <r>  -20.0587    1.0000 </r>
       <r>  -20.0569    1.0000 </r>
       <r>  -20.0480    1.0000 </r>
       <r>  -20.0464    1.0000 </r>
       <r>  -10.4502    1.0000 </r>
       <r>  -10.4494    1.0000 </r>
       <r>   -8.6720    1.0000 </r>
       <r>   -8.6654    1.0000 </r>
       <r>   -4.5132    1.0000 </r>
       <r>   -4.3735    1.0000 </r>
       <r>   -1.2470    1.0000 </r>
       <r>   -1.0875    1.0000 </r>
       <r>   -0.4441    1.0000 </r>
       <r>   -0.0870    1.0000 </r>
       <r>    0.1246    1.0000 </r>
       <r>    0.1497    1.0000 </r>
       <r>    1.3339    1.0000 </r>
       <r>    1.7867    1.0000 </r>
       <r>    2.6782    1.0000 </r>
       <r>    2.8128    1.0000 </r>
       <r>    3.9804    0.0000 </r>
       <r>    4.0395    0.0000 </r>
       <r>    4.8527    0.0000 </r>
       <r>    4.9942    0.0000 </r>
       <r>    6.2698    0.0000 </r>
       <r>    6.2889    0.0000 </r>
       <r>    6.5579    0.0000 </r>
       <r>    6.5935    0.0000 </r>
       <r>    6.7638    0.0000 </r>
       <r>    6.8125    0.0000 </r>
       <r>    7.8340    0.0000 </r>
       <r>    8.0985    0.0000 </r>
       <r>   10.2869    0.0000 </r>
       <r>   10.5294    0.0000 </r>
      </set>
      <set comment="kpoint 3">
       <r>  -23.1598    1.0000 </r>
       <r>  -23.1591    1.0000 </r>
       <r>  -23.1522    1.0000 </r>
       <r>  -23.1505    1.0000 </r>
       <r>  -20.0755    1.0000 </r>
       <r>  -20.0719    1.0000 </r>
       <r>  -20.0598    1.0000 </r>
       <r>  -20.0597    1.0000 </r>
       <r>  -20.0442    1.0000 </r>
       <r>  -20.0440    1.0000 </r>
       <r>   -9.7917    1.0000 </r>
       <r>   -9.7899    1.0000 </r>
       <r>   -8.9498    1.0000 </r>
       <r>   -8.9443    1.0000 </r>
       <r>   -4.1075    1.0000 </r>
       <r>   -3.9234    1.0000 </r>
       <r>   -2.7407    1.0000 </r>
       <r>   -2.6378    1.0000 </r>
       <r>   -1.3580    1.0000 </r>
       <r>   -0.8074    1.0000 </r>
       <r>   -0.2592    1.0000 </r>
       <r>    0.2417    1.0000 </r>
       <r>    0.5833    1.0000 </r>
       <r>    0.5986    1.0000 </r>
       <r>    2.2476    1.0000 </r>
       <r>    2.2988    1.0000 </r>
       <r>    4.5720    0.0000 </r>
       <r>    4.5995    0.0000 </r>
       <r>    5.5737    0.0000 </r>
       <r>    5.7099    0.0000 </r>
       <r>    7.3102    0.0000 </r>
       <r>    7.3620    0.0000 </r>
       <r>    7.6256    0.0000 </r>
       <r>    7.6730    0.0000 </r>
       <r>    7.9610    0.0000 </r>
       <r>    7.9915    0.0000 </r>
       <r>    8.5531    0.0000 </r>
       <r>    8.9771    0.0000 </r>
       <r>    9.2773    0.0000 </r>
       <r>    9.3065    0.0000 </r>
      </set>
      <set comment="kpoint 4">
       <r>  -23.1598    1.0000 </r>
       <r>  -23.1591    1.0000 </r>
       <r>  -23.1522    1.0000 </r>
       <r>  -23.1505    1.0000 </r>
       <r>  -20.0755    1.0000 </r>
       <r>  -20.0719    1.0000 </r>
       <r>  -20.0598    1.0000 </r>
       <r>  -20.0597    1.0000 </r>
       <r>  -20.0442    1.0000 </r>
       <r>  -20.0440    1.0000 </r>
       <r>   -9.7917    1.0000 </r>
       <r>   -9.7899    1.0000 </r>
       <r>   -8.9498    1.0000 </r>
       <r>   -8.9443    1.0000 </r>
       <r>   -4.1075    1.0000 </r>
       <r>   -3.9234    1.0000 </r>
       <r>   -2.7407    1.0000 </r>
       <r>   -2.6378    1.0000 </r>
       <r>   -1.3580    1.0000 </r>
       <r>   -0.8074    1.0000 </r>
       <r>   -0.2592    1.0000 </r>
       <r>    0.2417    1.0000 </r>
       <r>    0.5833    1.0000 </r>
       <r>    0.5986    1.0000 </r>
       <r>    2.2476    1.0000 </r>
       <r>    2.2988    1.0000 </r>
       <r>    4.5720    0.0000 </r>
       <r>    4.5995    0.0000 </r>
       <r>    5.5737    0.0000 </r>
       <r>    5.7099    0.0000 </r>
       <r>    7.3102    0.0000 </r>
       <r>    7.3620    0.0000 </r>
       <r>    7.6256    0.0000 </r>
       <r>    7.6730    0.0000 </r>
       <r>    7.9610    0.0000 </r>
       <r>    7.9915    0.0000 </r>
       <r>    8.5531    0.0000 </r>
       <r>    8.9771    0.0000 </r>
       <r>    9.2773    0.0000 </r>
       <r>    9.3065    0.0000 </r>
      </set>
      <set comment="kpoint 5">
       <r>  -23.1594    1.0000 </r>
       <r>  -23.1582    1.0000 </r>
       <r>  -23.1545    1.0000 </r>
       <r>  -23.1519    1.0000 </r>
       <r>  -20.0784    1.0000 </r>
       <r>  -20.0722    1.0000 </r>
       <r>  -20.0587    1.0000 </r>
       <r>  -20.0569    1.0000 </r>
       <r>  -20.0480    1.0000 </r>
       <r>  -20.0464    1.0000 </r>
       <r>  -10.4502    1.0000 </r>
       <r>  -10.4494    1.0000 </r>
       <r>   -8.6720    1.0000 </r>
       <r>   -8.6654    1.0000 </r>
       <r>   -4.5132    1.0000 </r>
       <r>   -4.3735    1.0000 </r>
       <r>   -1.2470    1.0000 </r>
       <r>   -1.0875    1.0000 </r>
       <r>   -0.4441    1.0000 </r>
       <r>   -0.0870    1.0000 </r>
       <r>    0.1246    1.0000 </r>
       <r>    0.1497    1.0000 </r>
       <r>    1.3339    1.0000 </r>
       <r>    1.7867    1.0000 </r>
       <r>    2.6782    1.0000 </r>
       <r>    2.8128    1.0000 </r>
       <r>    3.9804    0.0000 </r>
       <r>    4.0395    0.0000 </r>
       <r>    4.8527    0.0000 </r>
       <r>    4.9942    0.0000 </r>
       <r>    6.2698    0.0000 </r>
       <r>    6.2889    0.0000 </r>
       <r>    6.5579    0.0000 </r>
       <r>    6.5935    0.0000 </r>
       <r>    6.7638    0.0000 </r>
       <r>    6.8125    0.0000 </r>
       <r>    7.8340    0.0000 </r>
       <r>    8.0985    0.0000 </r>
       <r>   10.2869    0.0000 </r>
       <r>   10.5294    0.0000 </r>
      </set>
      <set comment="kpoint 6">
       <r>  -23.1594    1.0000 </r>
       <r>  -23.1582    1.0000 </r>
       <r>  -23.1545    1.0000 </r>
       <r>  -23.1519    1.0000 </r>
       <r>  -20.0784    1.0000 </r>
       <r>  -20.0722    1.0000 </r>
       <r>  -20.0587    1.0000 </r>
       <r>  -20.0569    1.0000 </r>
       <r>  -20.0480    1.0000 </r>
       <r>  -20.0464    1.0000 </r>
       <r>  -10.4502    1.0000 </r>
       <r>  -10.4494    1.0000 </r>
       <r>   -8.6720    1.0000 </r>
       <r>   -8.6654    1.0000 </r>
       <r>   -4.5132    1.0000 </r>
       <r>   -4.3735    1.0000 </r>
       <r>   -1.2470    1.0000 </r>
       <r>   -1.0875    1.0000 </r>
       <r>   -0.4441    1.0000 </r>
       <r>   -0.0870    1.0000 </r>
       <r>    0.1246    1.0000 </r>
       <r>    0.1497    1.0000 </r>
       <r>    1.3339    1.0000 </r>
       <r>    1.7867    1.0000 </r>
       <r>    2.6782    1.0000 </r>
       <r>    2.8128    1.0000 </r>
       <r>    3.9804    0.0000 </r>
       <r>    4.0395    0.0000 </r>
       <r>    4.8527    0.0000 </r>
       <r>    4.9942    0.0000 </r>
       <r>    6.2698    0.0000 </r>
       <r>    6.2889    0.0000 </r>
       <r>    6.5579    0.0000 </r>
       <r>    6.5935    0.0000 </r>
       <r>    6.7638    0.0000 </r>
       <r>    6.8125    0.0000 </r>
       <r>    7.8340    0.0000 </r>
       <r>    8.0985    0.0000 </r>
       <r>   10.2869    0.0000 </r>
       <r>   10.5294    0.0000 </r>
      </set>
      <set comment="kpoint 7">
       <r>  -23.1603    1.0000 </r>
       <r>  -23.1585    1.0000 </r>
       <r>  -23.1534    1.0000 </r>
       <r>  -23.1503    1.0000 </r>
       <r>  -20.0787    1.0000 </r>
       <r>  -20.0702    1.0000 </r>
       <r>  -20.0586    1.0000 </r>
       <r>  -20.0555    1.0000 </r>
       <r>  -20.0486    1.0000 </r>
       <r>  -20.0455    1.0000 </r>
       <r>  -10.2005    1.0000 </r>
       <r>  -10.1996    1.0000 </r>
       <r>   -8.6283    1.0000 </r>
       <r>   -8.6202    1.0000 </r>
       <r>   -4.4951    1.0000 </r>
       <r>   -4.3149    1.0000 </r>
       <r>   -1.4625    1.0000 </r>
       <r>   -1.4526    1.0000 </r>
       <r>   -1.1524    1.0000 </r>
       <r>   -0.7014    1.0000 </r>
       <r>   -0.3586    1.0000 </r>
       <r>   -0.2824    1.0000 </r>
       <r>    1.1068    1.0000 </r>
       <r>    1.1473    1.0000 </r>
       <r>    1.6500    1.0000 </r>
       <r>    1.8517    1.0000 </r>
       <r>    4.9242    0.0000 </r>
       <r>    4.9465    0.0000 </r>
       <r>    5.4594    0.0000 </r>
       <r>    5.4681    0.0000 </r>
       <r>    6.2522    0.0000 </r>
       <r>    6.5790    0.0000 </r>
       <r>    6.8798    0.0000 </r>
       <r>    6.9061    0.0000 </r>
       <r>    8.2292    0.0000 </r>
       <r>    8.3548    0.0000 </r>
       <r>    8.4199    0.0000 </r>
       <r>    8.9181    0.0000 </r>
       <r>    8.9417    0.0000 </r>
       <r>    9.0154    0.0000 </r>
      </set>
      <set comment="kpoint 8">
       <r>  -23.1609    1.0000 </r>
       <r>  -23.1590    1.0000 </r>
       <r>  -23.1514    1.0000 </r>
       <r>  -23.1488    1.0000 </r>
       <r>  -20.0771    1.0000 </r>
       <r>  -20.0710    1.0000 </r>
       <r>  -20.0598    1.0000 </r>
       <r>  -20.0562    1.0000 </r>
       <r>  -20.0450    1.0000 </r>
       <r>  -20.0427    1.0000 </r>
       <r>   -9.5718    1.0000 </r>
       <r>   -9.5703    1.0000 </r>
       <r>   -8.7821    1.0000 </r>
       <r>   -8.7766    1.0000 </r>
       <r>   -4.2575    1.0000 </r>
       <r>   -4.0825    1.0000 </r>
       <r>   -3.1015    1.0000 </r>
       <r>   -3.0189    1.0000 </r>
       <r>   -1.1537    1.0000 </r>
       <r>   -0.6624    1.0000 </r>
       <r>   -0.3090    1.0000 </r>
       <r>   -0.1346    1.0000 </r>
       <r>   -0.0105    1.0000 </r>
       <r>    0.3966    1.0000 </r>
       <r>    0.8635    1.0000 </r>
       <r>    1.3958    1.0000 </r>
       <r>    5.0747    0.0000 </r>
       <r>    5.2869    0.0000 </r>
       <r>    5.6651    0.0000 </r>
       <r>    5.6765    0.0000 </r>
       <r>    6.2178    0.0000 </r>
       <r>    6.6632    0.0000 </r>
       <r>    6.8998    0.0000 </r>
       <r>    7.0254    0.0000 </r>
       <r>    7.7500    0.0000 </r>
       <r>    7.8094    0.0000 </r>
       <r>    8.7371    0.0000 </r>
       <r>    8.9599    0.0000 </r>
       <r>    9.6563    0.0000 </r>
       <r>    9.8407    0.0000 </r>
      </set>
      <set comment="kpoint 9">
       <r>  -23.1609    1.0000 </r>
       <r>  -23.1590    1.0000 </r>
       <r>  -23.1514    1.0000 </r>
       <r>  -23.1488    1.0000 </r>
       <r>  -20.0771    1.0000 </r>
       <r>  -20.0710    1.0000 </r>
       <r>  -20.0598    1.0000 </r>
       <r>  -20.0562    1.0000 </r>
       <r>  -20.0450    1.0000 </r>
       <r>  -20.0427    1.0000 </r>
       <r>   -9.5718    1.0000 </r>
       <r>   -9.5703    1.0000 </r>
       <r>   -8.7821    1.0000 </r>
       <r>   -8.7766    1.0000 </r>
       <r>   -4.2575    1.0000 </r>
       <r>   -4.0825    1.0000 </r>
       <r>   -3.1015    1.0000 </r>
       <r>   -3.0189    1.0000 </r>
       <r>   -1.1537    1.0000 </r>
       <r>   -0.6624    1.0000 </r>
       <r>   -0.3090    1.0000 </r>
       <r>   -0.1346    1.0000 </r>
       <r>   -0.0105    1.0000 </r>
       <r>    0.3966    1.0000 </r>
       <r>    0.8635    1.0000 </r>
       <r>    1.3958    1.0000 </r>
       <r>    5.0747    0.0000 </r>
       <r>    5.2869    0.0000 </r>
       <r>    5.6651    0.0000 </r>
       <r>    5.6765    0.0000 </r>
       <r>    6.2178    0.0000 </r>
       <r>    6.6632    0.0000 </r>
       <r>    6.8998    0.0000 </r>
       <r>    7.0254    0.0000 </r>
       <r>    7.7500    0.0000 </r>
       <r>    7.8094    0.0000 </r>
       <r>    8.7371    0.0000 </r>
       <r>    8.9599    0.0000 </r>
       <r>    9.6563    0.0000 </r>
       <r>    9.8407    0.0000 </r>
      </set>
      <set comment="kpoint 10">
       <r>  -23.1603    1.0000 </r>
       <r>  -23.1585    1.0000 </r>
       <r>  -23.1534    1.0000 </r>
       <r>  -23.1503    1.0000 </r>
       <r>  -20.0787    1.0000 </r>
       <r>  -20.0702    1.0000 </r>
       <r>  -20.0586    1.0000 </r>
       <r>  -20.0555    1.0000 </r>
       <r>  -20.0486    1.0000 </r>
       <r>  -20.0455    1.0000 </r>
       <r>  -10.2005    1.0000 </r>
       <r>  -10.1996    1.0000 </r>
       <r>   -8.6283    1.0000 </r>
       <r>   -8.6202    1.0000 </r>
       <r>   -4.4951    1.0000 </r>
       <r>   -4.3149    1.0000 </r>
       <r>   -1.4625    1.0000 </r>
       <r>   -1.4526    1.0000 </r>
       <r>   -1.1524    1.0000 </r>
       <r>   -0.7014    1.0000 </r>
       <r>   -0.3586    1.0000 </r>
       <r>   -0.2824    1.0000 </r>
       <r>    1.1068    1.0000 </r>
       <r>    1.1473    1.0000 </r>
       <r>    1.6500    1.0000 </r>
       <r>    1.8517    1.0000 </r>
       <r>    4.9242    0.0000 </r>
       <r>    4.9465    0.0000 </r>
       <r>    5.4594    0.0000 </r>
       <r>    5.4681    0.0000 </r>
       <r>    6.2522    0.0000 </r>
       <r>    6.5790    0.0000 </r>
       <r>    6.8798    0.0000 </r>
       <r>    6.9061    0.0000 </r>
       <r>    8.2292    0.0000 </r>
       <r>    8.3548    0.0000 </r>
       <r>    8.4199    0.0000 </r>
       <r>    8.9181    0.0000 </r>
       <r>    8.9417    0.0000 </r>
       <r>    9.0154    0.0000 </r>
      </set>
      <set comment="kpoint 11">
       <r>  -23.1598    1.0000 </r>
       <r>  -23.1591    1.0000 </r>
       <r>  -23.1522    1.0000 </r>
       <r>  -23.1505    1.0000 </r>
       <r>  -20.0755    1.0000 </r>
       <r>  -20.0719    1.0000 </r>
       <r>  -20.0598    1.0000 </r>
       <r>  -20.0597    1.0000 </r>
       <r>  -20.0442    1.0000 </r>
       <r>  -20.0440    1.0000 </r>
       <r>   -9.7917    1.0000 </r>
       <r>   -9.7899    1.0000 </r>
       <r>   -8.9498    1.0000 </r>
       <r>   -8.9443    1.0000 </r>
       <r>   -4.1075    1.0000 </r>
       <r>   -3.9234    1.0000 </r>
       <r>   -2.7407    1.0000 </r>
       <r>   -2.6378    1.0000 </r>
       <r>   -1.3580    1.0000 </r>
       <r>   -0.8074    1.0000 </r>
       <r>   -0.2592    1.0000 </r>
       <r>    0.2417    1.0000 </r>
       <r>    0.5833    1.0000 </r>
       <r>    0.5986    1.0000 </r>
       <r>    2.2476    1.0000 </r>
       <r>    2.2988    1.0000 </r>
       <r>    4.5720    0.0000 </r>
       <r>    4.5995    0.0000 </r>
       <r>    5.5737    0.0000 </r>
       <r>    5.7099    0.0000 </r>
       <r>    7.3102    0.0000 </r>
       <r>    7.3620    0.0000 </r>
       <r>    7.6256    0.0000 </r>
       <r>    7.6730    0.0000 </r>
       <r>    7.9610    0.0000 </r>
       <r>    7.9915    0.0000 </r>
       <r>    8.5531    0.0000 </r>
       <r>    8.9771    0.0000 </r>
       <r>    9.2773    0.0000 </r>
       <r>    9.3065    0.0000 </r>
      </set>
      <set comment="kpoint 12">
       <r>  -23.1609    1.0000 </r>
       <r>  -23.1590    1.0000 </r>
       <r>  -23.1514    1.0000 </r>
       <r>  -23.1488    1.0000 </r>
       <r>  -20.0771    1.0000 </r>
       <r>  -20.0710    1.0000 </r>
       <r>  -20.0598    1.0000 </r>
       <r>  -20.0562    1.0000 </r>
       <r>  -20.0450    1.0000 </r>
       <r>  -20.0427    1.0000 </r>
       <r>   -9.5718    1.0000 </r>
       <r>   -9.5703    1.0000 </r>
       <r>   -8.7821    1.0000 </r>
       <r>   -8.7766    1.0000 </r>
       <r>   -4.2575    1.0000 </r>
       <r>   -4.0825    1.0000 </r>
       <r>   -3.1015    1.0000 </r>
       <r>   -3.0189    1.0000 </r>
       <r>   -1.1537    1.0000 </r>
       <r>   -0.6624    1.0000 </r>
       <r>   -0.3090    1.0000 </r>
       <r>   -0.1346    1.0000 </r>
       <r>   -0.0105    1.0000 </r>
       <r>    0.3966    1.0000 </r>
       <r>    0.8635    1.0000 </r>
       <r>    1.3958    1.0000 </r>
       <r>    5.0747    0.0000 </r>
       <r>    5.2869    0.0000 </r>
       <r>    5.6651    0.0000 </r>
       <r>    5.6765    0.0000 </r>
       <r>    6.2178    0.0000 </r>
       <r>    6.6632    0.0000 </r>
       <r>    6.8997    0.0000 </r>
       <r>    7.0254    0.0000 </r>
       <r>    7.7500    0.0000 </r>
       <r>    7.8094    0.0000 </r>
       <r>    8.7371    0.0000 </r>
       <r>    8.9599    0.0000 </r>
       <r>    9.6563    0.0000 </r>
       <r>    9.8407    0.0000 </r>
      </set>
      <set comment="kpoint 13">
       <r>  -23.1612    1.0000 </r>
       <r>  -23.1599    1.0000 </r>
       <r>  -23.1493    1.0000 </r>
       <r>  -23.1473    1.0000 </r>
       <r>  -20.0769    1.0000 </r>
       <r>  -20.0731    1.0000 </r>
       <r>  -20.0584    1.0000 </r>
       <r>  -20.0563    1.0000 </r>
       <r>  -20.0410    1.0000 </r>
       <r>  -20.0407    1.0000 </r>
       <r>   -9.0920    1.0000 </r>
       <r>   -9.0911    1.0000 </r>
       <r>   -8.5139    1.0000 </r>
       <r>   -8.5111    1.0000 </r>
       <r>   -4.5639    1.0000 </r>
       <r>   -4.4613    1.0000 </r>
       <r>   -4.0448    1.0000 </r>
       <r>   -4.0397    1.0000 </r>
       <r>   -0.7078    1.0000 </r>
       <r>   -0.5753    1.0000 </r>
       <r>   -0.3895    1.0000 </r>
       <r>   -0.3433    1.0000 </r>
       <r>    0.1433    1.0000 </r>
       <r>    0.2459    1.0000 </r>
       <r>    0.4318    1.0000 </r>
       <r>    0.7309    1.0000 </r>
       <r>    4.2166    0.0000 </r>
       <r>    4.2444    0.0000 </r>
       <r>    4.6005    0.0000 </r>
       <r>    4.6075    0.0000 </r>
       <r>    4.9633    0.0000 </r>
       <r>    5.2513    0.0000 </r>
       <r>    5.4544    0.0000 </r>
       <r>    5.4571    0.0000 </r>
       <r>   10.4570    0.0000 </r>
       <r>   10.5517    0.0000 </r>
       <r>   10.5831    0.0000 </r>
       <r>   10.6145    0.0000 </r>
       <r>   11.1432    0.0000 </r>
       <r>   11.3555    0.0000 </r>
      </set>
      <set comment="kpoint 14">
       <r>  -23.1612    1.0000 </r>
       <r>  -23.1599    1.0000 </r>
       <r>  -23.1493    1.0000 </r>
       <r>  -23.1473    1.0000 </r>
       <r>  -20.0769    1.0000 </r>
       <r>  -20.0731    1.0000 </r>
       <r>  -20.0584    1.0000 </r>
       <r>  -20.0563    1.0000 </r>
       <r>  -20.0410    1.0000 </r>
       <r>  -20.0407    1.0000 </r>
       <r>   -9.0920    1.0000 </r>
       <r>   -9.0911    1.0000 </r>
       <r>   -8.5139    1.0000 </r>
       <r>   -8.5111    1.0000 </r>
       <r>   -4.5639    1.0000 </r>
       <r>   -4.4613    1.0000 </r>
       <r>   -4.0448    1.0000 </r>
       <r>   -4.0397    1.0000 </r>
       <r>   -0.7078    1.0000 </r>
       <r>   -0.5753    1.0000 </r>
       <r>   -0.3895    1.0000 </r>
       <r>   -0.3433    1.0000 </r>
       <r>    0.1433    1.0000 </r>
       <r>    0.2459    1.0000 </r>
       <r>    0.4318    1.0000 </r>
       <r>    0.7309    1.0000 </r>
       <r>    4.2166    0.0000 </r>
       <r>    4.2444    0.0000 </r>
       <r>    4.6005    0.0000 </r>
       <r>    4.6075    0.0000 </r>
       <r>    4.9633    0.0000 </r>
       <r>    5.2513    0.0000 </r>
       <r>    5.4544    0.0000 </r>
       <r>    5.4571    0.0000 </r>
       <r>   10.4570    0.0000 </r>
       <r>   10.5517    0.0000 </r>
       <r>   10.5831    0.0000 </r>
       <r>   10.6145    0.0000 </r>
       <r>   11.1432    0.0000 </r>
       <r>   11.3555    0.0000 </r>
      </set>
      <set comment="kpoint 15">
       <r>  -23.1609    1.0000 </r>
       <r>  -23.1590    1.0000 </r>
       <r>  -23.1514    1.0000 </r>
       <r>  -23.1488    1.0000 </r>
       <r>  -20.0771    1.0000 </r>
       <r>  -20.0710    1.0000 </r>
       <r>  -20.0598    1.0000 </r>
       <r>  -20.0562    1.0000 </r>
       <r>  -20.0450    1.0000 </r>
       <r>  -20.0427    1.0000 </r>
       <r>   -9.5718    1.0000 </r>
       <r>   -9.5703    1.0000 </r>
       <r>   -8.7821    1.0000 </r>
       <r>   -8.7766    1.0000 </r>
       <r>   -4.2575    1.0000 </r>
       <r>   -4.0825    1.0000 </r>
       <r>   -3.1015    1.0000 </r>
       <r>   -3.0189    1.0000 </r>
       <r>   -1.1537    1.0000 </r>
       <r>   -0.6624    1.0000 </r>
       <r>   -0.3090    1.0000 </r>
       <r>   -0.1346    1.0000 </r>
       <r>   -0.0105    1.0000 </r>
       <r>    0.3966    1.0000 </r>
       <r>    0.8635    1.0000 </r>
       <r>    1.3958    1.0000 </r>
       <r>    5.0747    0.0000 </r>
       <r>    5.2869    0.0000 </r>
       <r>    5.6651    0.0000 </r>
       <r>    5.6765    0.0000 </r>
       <r>    6.2178    0.0000 </r>
       <r>    6.6632    0.0000 </r>
       <r>    6.8997    0.0000 </r>
       <r>    7.0254    0.0000 </r>
       <r>    7.7500    0.0000 </r>
       <r>    7.8094    0.0000 </r>
       <r>    8.7371    0.0000 </r>
       <r>    8.9599    0.0000 </r>
       <r>    9.6563    0.0000 </r>
       <r>    9.8407    0.0000 </r>
      </set>
      <set comment="kpoint 16">
       <r>  -23.1598    1.0000 </r>
       <r>  -23.1591    1.0000 </r>
       <r>  -23.1522    1.0000 </r>
       <r>  -23.1505    1.0000 </r>
       <r>  -20.0755    1.0000 </r>
       <r>  -20.0719    1.0000 </r>
       <r>  -20.0598    1.0000 </r>
       <r>  -20.0597    1.0000 </r>
       <r>  -20.0442    1.0000 </r>
       <r>  -20.0440    1.0000 </r>
       <r>   -9.7917    1.0000 </r>
       <r>   -9.7899    1.0000 </r>
       <r>   -8.9498    1.0000 </r>
       <r>   -8.9443    1.0000 </r>
       <r>   -4.1075    1.0000 </r>
       <r>   -3.9234    1.0000 </r>
       <r>   -2.7407    1.0000 </r>
       <r>   -2.6378    1.0000 </r>
       <r>   -1.3580    1.0000 </r>
       <r>   -0.8074    1.0000 </r>
       <r>   -0.2592    1.0000 </r>
       <r>    0.2417    1.0000 </r>
       <r>    0.5833    1.0000 </r>
       <r>    0.5986    1.0000 </r>
       <r>    2.2476    1.0000 </r>
       <r>    2.2988    1.0000 </r>
       <r>    4.5720    0.0000 </r>
       <r>    4.5995    0.0000 </r>
       <r>    5.5737    0.0000 </r>
       <r>    5.7099    0.0000 </r>
       <r>    7.3102    0.0000 </r>
       <r>    7.3620    0.0000 </r>
       <r>    7.6256    0.0000 </r>
       <r>    7.6730    0.0000 </r>
       <r>    7.9610    0.0000 </r>
       <r>    7.9915    0.0000 </r>
       <r>    8.5531    0.0000 </r>
       <r>    8.9771    0.0000 </r>
       <r>    9.2773    0.0000 </r>
       <r>    9.3065    0.0000 </r>
      </set>
      <set comment="kpoint 17">
       <r>  -23.1609    1.0000 </r>
       <r>  -23.1590    1.0000 </r>
       <r>  -23.1514    1.0000 </r>
       <r>  -23.1488    1.0000 </r>
       <r>  -20.0771    1.0000 </r>
       <r>  -20.0710    1.0000 </r>
       <r>  -20.0598    1.0000 </r>
       <r>  -20.0562    1.0000 </r>
       <r>  -20.0450    1.0000 </r>
       <r>  -20.0427    1.0000 </r>
       <r>   -9.5718    1.0000 </r>
       <r>   -9.5703    1.0000 </r>
       <r>   -8.7821    1.0000 </r>
       <r>   -8.7766    1.0000 </r>
       <r>   -4.2575    1.0000 </r>
       <r>   -4.0825    1.0000 </r>
       <r>   -3.1015    1.0000 </r>
       <r>   -3.0189    1.0000 </r>
       <r>   -1.1537    1.0000 </r>
       <r>   -0.6624    1.0000 </r>
       <r>   -0.3090    1.0000 </r>
       <r>   -0.1346    1.0000 </r>
       <r>   -0.0105    1.0000 </r>
       <r>    0.3966    1.0000 </r>
       <r>    0.8635    1.0000 </r>
       <r>    1.3958    1.0000 </r>
       <r>    5.0747    0.0000 </r>
       <r>    5.2869    0.0000 </r>
       <r>    5.6651    0.0000 </r>
       <r>    5.6765    0.0000 </r>
       <r>    6.2178    0.0000 </r>
       <r>    6.6632    0.0000 </r>
       <r>    6.8997    0.0000 </r>
       <r>    7.0254    0.0000 </r>
       <r>    7.7500    0.0000 </r>
       <r>    7.8094    0.0000 </r>
       <r>    8.7371    0.0000 </r>
       <r>    8.9599    0.0000 </r>
       <r>    9.6563    0.0000 </r>
       <r>    9.8407    0.0000 </r>
      </set>
      <set comment="kpoint 18">
       <r>  -23.1612    1.0000 </r>
       <r>  -23.1599    1.0000 </r>
       <r>  -23.1493    1.0000 </r>
       <r>  -23.1473    1.0000 </r>
       <r>  -20.0769    1.0000 </r>
       <r>  -20.0731    1.0000 </r>
       <r>  -20.0584    1.0000 </r>
       <r>  -20.0563    1.0000 </r>
       <r>  -20.0410    1.0000 </r>
       <r>  -20.0407    1.0000 </r>
       <r>   -9.0920    1.0000 </r>
       <r>   -9.0911    1.0000 </r>
       <r>   -8.5139    1.0000 </r>
       <r>   -8.5111    1.0000 </r>
       <r>   -4.5639    1.0000 </r>
       <r>   -4.4613    1.0000 </r>
       <r>   -4.0448    1.0000 </r>
       <r>   -4.0397    1.0000 </r>
       <r>   -0.7078    1.0000 </r>
       <r>   -0.5753    1.0000 </r>
       <r>   -0.3895    1.0000 </r>
       <r>   -0.3433    1.0000 </r>
       <r>    0.1433    1.0000 </r>
       <r>    0.2459    1.0000 </r>
       <r>    0.4318    1.0000 </r>
       <r>    0.7309    1.0000 </r>
       <r>    4.2166    0.0000 </r>
       <r>    4.2444    0.0000 </r>
       <r>    4.6005    0.0000 </r>
       <r>    4.6075    0.0000 </r>
       <r>    4.9633    0.0000 </r>
       <r>    5.2513    0.0000 </r>
       <r>    5.4544    0.0000 </r>
       <r>    5.4571    0.0000 </r>
       <r>   10.4570    0.0000 </r>
       <r>   10.5517    0.0000 </r>
       <r>   10.5831    0.0000 </r>
       <r>   10.6145    0.0000 </r>
       <r>   11.1432    0.0000 </r>
       <r>   11.3555    0.0000 </r>
      </set>
      <set comment="kpoint 19">
       <r>  -23.1612    1.0000 </r>
       <r>  -23.1599    1.0000 </r>
       <r>  -23.1493    1.0000 </r>
       <r>  -23.1473    1.0000 </r>
       <r>  -20.0769    1.0000 </r>
       <r>  -20.0731    1.0000 </r>
       <r>  -20.0584    1.0000 </r>
       <r>  -20.0563    1.0000 </r>
       <r>  -20.0410    1.0000 </r>
       <r>  -20.0407    1.0000 </r>
       <r>   -9.0920    1.0000 </r>
       <r>   -9.0911    1.0000 </r>
       <r>   -8.5139    1.0000 </r>
       <r>   -8.5111    1.0000 </r>
       <r>   -4.5639    1.0000 </r>
       <r>   -4.4613    1.0000 </r>
       <r>   -4.0448    1.0000 </r>
       <r>   -4.0397    1.0000 </r>
       <r>   -0.7078    1.0000 </r>
       <r>   -0.5753    1.0000 </r>
       <r>   -0.3895    1.0000 </r>
       <r>   -0.3433    1.0000 </r>
       <r>    0.1433    1.0000 </r>
       <r>    0.2459    1.0000 </r>
       <r>    0.4318    1.0000 </r>
       <r>    0.7309    1.0000 </r>
       <r>    4.2166    0.0000 </r>
       <r>    4.2444    0.0000 </r>
       <r>    4.6005    0.0000 </r>
       <r>    4.6075    0.0000 </r>
       <r>    4.9633    0.0000 </r>
       <r>    5.2513    0.0000 </r>
       <r>    5.4544    0.0000 </r>
       <r>    5.4571    0.0000 </r>
       <r>   10.4570    0.0000 </r>
       <r>   10.5517    0.0000 </r>
       <r>   10.5831    0.0000 </r>
       <r>   10.6145    0.0000 </r>
       <r>   11.1432    0.0000 </r>
       <r>   11.3555    0.0000 </r>
      </set>
      <set comment="kpoint 20">
       <r>  -23.1609    1.0000 </r>
       <r>  -23.1590    1.0000 </r>
       <r>  -23.1514    1.0000 </r>
       <r>  -23.1488    1.0000 </r>
       <r>  -20.0771    1.0000 </r>
       <r>  -20.0710    1.0000 </r>
       <r>  -20.0598    1.0000 </r>
       <r>  -20.0562    1.0000 </r>
       <r>  -20.0450    1.0000 </r>
       <r>  -20.0427    1.0000 </r>
       <r>   -9.5718    1.0000 </r>
       <r>   -9.5703    1.0000 </r>
       <r>   -8.7821    1.0000 </r>
       <r>   -8.7766    1.0000 </r>
       <r>   -4.2575    1.0000 </r>
       <r>   -4.0825    1.0000 </r>
       <r>   -3.1015    1.0000 </r>
       <r>   -3.0189    1.0000 </r>
       <r>   -1.1537    1.0000 </r>
       <r>   -0.6624    1.0000 </r>
       <r>   -0.3090    1.0000 </r>
       <r>   -0.1346    1.0000 </r>
       <r>   -0.0105    1.0000 </r>
       <r>    0.3966    1.0000 </r>
       <r>    0.8635    1.0000 </r>
       <r>    1.3958    1.0000 </r>
       <r>    5.0747    0.0000 </r>
       <r>    5.2869    0.0000 </r>
       <r>    5.6651    0.0000 </r>
       <r>    5.6765    0.0000 </r>
       <r>    6.2178    0.0000 </r>
       <r>    6.6632    0.0000 </r>
       <r>    6.8997    0.0000 </r>
       <r>    7.0254    0.0000 </r>
       <r>    7.7500    0.0000 </r>
       <r>    7.8094    0.0000 </r>
       <r>    8.7371    0.0000 </r>
       <r>    8.9599    0.0000 </r>
       <r>    9.6563    0.0000 </r>
       <r>    9.8407    0.0000 </r>
      </set>
      <set comment="kpoint 21">
       <r>  -23.1594    1.0000 </r>
       <r>  -23.1582    1.0000 </r>
       <r>  -23.1545    1.0000 </r>
       <r>  -23.1519    1.0000 </r>
       <r>  -20.0784    1.0000 </r>
       <r>  -20.0722    1.0000 </r>
       <r>  -20.0587    1.0000 </r>
       <r>  -20.0569    1.0000 </r>
       <r>  -20.0480    1.0000 </r>
       <r>  -20.0464    1.0000 </r>
       <r>  -10.4502    1.0000 </r>
       <r>  -10.4494    1.0000 </r>
       <r>   -8.6720    1.0000 </r>
       <r>   -8.6654    1.0000 </r>
       <r>   -4.5132    1.0000 </r>
       <r>   -4.3735    1.0000 </r>
       <r>   -1.2470    1.0000 </r>
       <r>   -1.0875    1.0000 </r>
       <r>   -0.4441    1.0000 </r>
       <r>   -0.0870    1.0000 </r>
       <r>    0.1246    1.0000 </r>
       <r>    0.1497    1.0000 </r>
       <r>    1.3339    1.0000 </r>
       <r>    1.7867    1.0000 </r>
       <r>    2.6782    1.0000 </r>
       <r>    2.8128    1.0000 </r>
       <r>    3.9804    0.0000 </r>
       <r>    4.0395    0.0000 </r>
       <r>    4.8527    0.0000 </r>
       <r>    4.9942    0.0000 </r>
       <r>    6.2698    0.0000 </r>
       <r>    6.2889    0.0000 </r>
       <r>    6.5579    0.0000 </r>
       <r>    6.5935    0.0000 </r>
       <r>    6.7638    0.0000 </r>
       <r>    6.8125    0.0000 </r>
       <r>    7.8340    0.0000 </r>
       <r>    8.0985    0.0000 </r>
       <r>   10.2869    0.0000 </r>
       <r>   10.5294    0.0000 </r>
      </set>
      <set comment="kpoint 22">
       <r>  -23.1603    1.0000 </r>
       <r>  -23.1585    1.0000 </r>
       <r>  -23.1534    1.0000 </r>
       <r>  -23.1503    1.0000 </r>
       <r>  -20.0787    1.0000 </r>
       <r>  -20.0702    1.0000 </r>
       <r>  -20.0586    1.0000 </r>
       <r>  -20.0555    1.0000 </r>
       <r>  -20.0486    1.0000 </r>
       <r>  -20.0455    1.0000 </r>
       <r>  -10.2005    1.0000 </r>
       <r>  -10.1996    1.0000 </r>
       <r>   -8.6283    1.0000 </r>
       <r>   -8.6202    1.0000 </r>
       <r>   -4.4951    1.0000 </r>
       <r>   -4.3149    1.0000 </r>
       <r>   -1.4625    1.0000 </r>
       <r>   -1.4526    1.0000 </r>
       <r>   -1.1524    1.0000 </r>
       <r>   -0.7014    1.0000 </r>
       <r>   -0.3586    1.0000 </r>
       <r>   -0.2824    1.0000 </r>
       <r>    1.1068    1.0000 </r>
       <r>    1.1473    1.0000 </r>
       <r>    1.6500    1.0000 </r>
       <r>    1.8517    1.0000 </r>
       <r>    4.9242    0.0000 </r>
       <r>    4.9465    0.0000 </r>
       <r>    5.4594    0.0000 </r>
       <r>    5.4681    0.0000 </r>
       <r>    6.2522    0.0000 </r>
       <r>    6.5790    0.0000 </r>
       <r>    6.8798    0.0000 </r>
       <r>    6.9061    0.0000 </r>
       <r>    8.2292    0.0000 </r>
       <r>    8.3548    0.0000 </r>
       <r>    8.4199    0.0000 </r>
       <r>    8.9181    0.0000 </r>
       <r>    8.9417    0.0000 </r>
       <r>    9.0154    0.0000 </r>
      </set>
      <set comment="kpoint 23">
       <r>  -23.1609    1.0000 </r>
       <r>  -23.1590    1.0000 </r>
       <r>  -23.1514    1.0000 </r>
       <r>  -23.1488    1.0000 </r>
       <r>  -20.0771    1.0000 </r>
       <r>  -20.0710    1.0000 </r>
       <r>  -20.0598    1.0000 </r>
       <r>  -20.0562    1.0000 </r>
       <r>  -20.0450    1.0000 </r>
       <r>  -20.0427    1.0000 </r>
       <r>   -9.5718    1.0000 </r>
       <r>   -9.5703    1.0000 </r>
       <r>   -8.7821    1.0000 </r>
       <r>   -8.7766    1.0000 </r>
       <r>   -4.2575    1.0000 </r>
       <r>   -4.0825    1.0000 </r>
       <r>   -3.1015    1.0000 </r>
       <r>   -3.0189    1.0000 </r>
       <r>   -1.1537    1.0000 </r>
       <r>   -0.6624    1.0000 </r>
       <r>   -0.3090    1.0000 </r>
       <r>   -0.1346    1.0000 </r>
       <r>   -0.0105    1.0000 </r>
       <r>    0.3966    1.0000 </r>
       <r>    0.8635    1.0000 </r>
       <r>    1.3958    1.0000 </r>
       <r>    5.0747    0.0000 </r>
       <r>    5.2869    0.0000 </r>
       <r>    5.6651    0.0000 </r>
       <r>    5.6765    0.0000 </r>
       <r>    6.2178    0.0000 </r>
       <r>    6.6632    0.0000 </r>
       <r>    6.8998    0.0000 </r>
       <r>    7.0254    0.0000 </r>
       <r>    7.7500    0.0000 </r>
       <r>    7.8094    0.0000 </r>
       <r>    8.7371    0.0000 </r>
       <r>    8.9599    0.0000 </r>
       <r>    9.6563    0.0000 </r>
       <r>    9.8407    0.0000 </r>
      </set>
      <set comment="kpoint 24">
       <r>  -23.1609    1.0000 </r>
       <r>  -23.1590    1.0000 </r>
       <r>  -23.1514    1.0000 </r>
       <r>  -23.1488    1.0000 </r>
       <r>  -20.0771    1.0000 </r>
       <r>  -20.0710    1.0000 </r>
       <r>  -20.0598    1.0000 </r>
       <r>  -20.0562    1.0000 </r>
       <r>  -20.0450    1.0000 </r>
       <r>  -20.0427    1.0000 </r>
       <r>   -9.5718    1.0000 </r>
       <r>   -9.5703    1.0000 </r>
       <r>   -8.7821    1.0000 </r>
       <r>   -8.7766    1.0000 </r>
       <r>   -4.2575    1.0000 </r>
       <r>   -4.0825    1.0000 </r>
       <r>   -3.1015    1.0000 </r>
       <r>   -3.0189    1.0000 </r>
       <r>   -1.1537    1.0000 </r>
       <r>   -0.6624    1.0000 </r>
       <r>   -0.3090    1.0000 </r>
       <r>   -0.1346    1.0000 </r>
       <r>   -0.0105    1.0000 </r>
       <r>    0.3966    1.0000 </r>
       <r>    0.8635    1.0000 </r>
       <r>    1.3958    1.0000 </r>
       <r>    5.0747    0.0000 </r>
       <r>    5.2869    0.0000 </r>
       <r>    5.6651    0.0000 </r>
       <r>    5.6765    0.0000 </r>
       <r>    6.2178    0.0000 </r>
       <r>    6.6632    0.0000 </r>
       <r>    6.8998    0.0000 </r>
       <r>    7.0254    0.0000 </r>
       <r>    7.7500    0.0000 </r>
       <r>    7.8094    0.0000 </r>
       <r>    8.7371    0.0000 </r>
       <r>    8.9599    0.0000 </r>
       <r>    9.6563    0.0000 </r>
       <r>    9.8407    0.0000 </r>
      </set>
      <set comment="kpoint 25">
       <r>  -23.1603    1.0000 </r>
       <r>  -23.1585    1.0000 </r>
       <r>  -23.1534    1.0000 </r>
       <r>  -23.1503    1.0000 </r>
       <r>  -20.0787    1.0000 </r>
       <r>  -20.0702    1.0000 </r>
       <r>  -20.0586    1.0000 </r>
       <r>  -20.0555    1.0000 </r>
       <r>  -20.0486    1.0000 </r>
       <r>  -20.0455    1.0000 </r>
       <r>  -10.2005    1.0000 </r>
       <r>  -10.1996    1.0000 </r>
       <r>   -8.6283    1.0000 </r>
       <r>   -8.6202    1.0000 </r>
       <r>   -4.4951    1.0000 </r>
       <r>   -4.3149    1.0000 </r>
       <r>   -1.4625    1.0000 </r>
       <r>   -1.4526    1.0000 </r>
       <r>   -1.1524    1.0000 </r>
       <r>   -0.7014    1.0000 </r>
       <r>   -0.3586    1.0000 </r>
       <r>   -0.2824    1.0000 </r>
       <r>    1.1068    1.0000 </r>
       <r>    1.1473    1.0000 </r>
       <r>    1.6500    1.0000 </r>
       <r>    1.8517    1.0000 </r>
       <r>    4.9242    0.0000 </r>
       <r>    4.9465    0.0000 </r>
       <r>    5.4594    0.0000 </r>
       <r>    5.4681    0.0000 </r>
       <r>    6.2522    0.0000 </r>
       <r>    6.5790    0.0000 </r>
       <r>    6.8798    0.0000 </r>
       <r>    6.9061    0.0000 </r>
       <r>    8.2292    0.0000 </r>
       <r>    8.3548    0.0000 </r>
       <r>    8.4199    0.0000 </r>
       <r>    8.9181    0.0000 </r>
       <r>    8.9417    0.0000 </r>
       <r>    9.0154    0.0000 </r>
      </set>
      <set comment="kpoint 26">
       <r>  -23.1581    1.0000 </r>
       <r>  -23.1581    1.0000 </r>
       <r>  -23.1547    1.0000 </r>
       <r>  -23.1547    1.0000 </r>
       <r>  -20.0768    1.0000 </r>
       <r>  -20.0768    1.0000 </r>
       <r>  -20.0573    1.0000 </r>
       <r>  -20.0573    1.0000 </r>
       <r>  -20.0476    1.0000 </r>
       <r>  -20.0476    1.0000 </r>
       <r>  -10.3661    1.0000 </r>
       <r>  -10.3661    1.0000 </r>
       <r>   -9.3704    1.0000 </r>
       <r>   -9.3704    1.0000 </r>
       <r>   -3.2882    1.0000 </r>
       <r>   -3.2882    1.0000 </r>
       <r>   -0.7690    1.0000 </r>
       <r>   -0.7690    1.0000 </r>
       <r>    0.0418    1.0000 </r>
       <r>    0.0418    1.0000 </r>
       <r>    0.2530    1.0000 </r>
       <r>    0.2530    1.0000 </r>
       <r>    1.4354    1.0000 </r>
       <r>    1.4354    1.0000 </r>
       <r>    2.4477    1.0000 </r>
       <r>    2.4477    1.0000 </r>
       <r>    4.1646    0.0000 </r>
       <r>    4.1646    0.0000 </r>
       <r>    4.9814    0.0000 </r>
       <r>    4.9814    0.0000 </r>
       <r>    5.3373    0.0000 </r>
       <r>    5.3373    0.0000 </r>
       <r>    6.0518    0.0000 </r>
       <r>    6.0518    0.0000 </r>
       <r>    7.8662    0.0000 </r>
       <r>    7.8662    0.0000 </r>
       <r>    8.0650    0.0000 </r>
       <r>    8.0650    0.0000 </r>
       <r>   10.0128    0.0000 </r>
       <r>   10.0128    0.0000 </r>
      </set>
      <set comment="kpoint 27">
       <r>  -23.1594    1.0000 </r>
       <r>  -23.1581    1.0000 </r>
       <r>  -23.1545    1.0000 </r>
       <r>  -23.1519    1.0000 </r>
       <r>  -20.0785    1.0000 </r>
       <r>  -20.0722    1.0000 </r>
       <r>  -20.0585    1.0000 </r>
       <r>  -20.0568    1.0000 </r>
       <r>  -20.0480    1.0000 </r>
       <r>  -20.0464    1.0000 </r>
       <r>  -10.1413    1.0000 </r>
       <r>  -10.1407    1.0000 </r>
       <r>   -9.2355    1.0000 </r>
       <r>   -9.2335    1.0000 </r>
       <r>   -3.6865    1.0000 </r>
       <r>   -3.5702    1.0000 </r>
       <r>   -1.9704    1.0000 </r>
       <r>   -1.8924    1.0000 </r>
       <r>   -0.3774    1.0000 </r>
       <r>   -0.0582    1.0000 </r>
       <r>    0.3399    1.0000 </r>
       <r>    0.3715    1.0000 </r>
       <r>    1.2989    1.0000 </r>
       <r>    1.6668    1.0000 </r>
       <r>    2.2762    1.0000 </r>
       <r>    2.4156    1.0000 </r>
       <r>    3.9934    0.0000 </r>
       <r>    4.1124    0.0000 </r>
       <r>    5.0330    0.0000 </r>
       <r>    5.1523    0.0000 </r>
       <r>    6.3108    0.0000 </r>
       <r>    6.3395    0.0000 </r>
       <r>    7.0267    0.0000 </r>
       <r>    7.2822    0.0000 </r>
       <r>    7.6959    0.0000 </r>
       <r>    7.7530    0.0000 </r>
       <r>    8.1937    0.0000 </r>
       <r>    8.2268    0.0000 </r>
       <r>    8.9228    0.0000 </r>
       <r>    8.9601    0.0000 </r>
      </set>
      <set comment="kpoint 28">
       <r>  -23.1597    1.0000 </r>
       <r>  -23.1591    1.0000 </r>
       <r>  -23.1522    1.0000 </r>
       <r>  -23.1505    1.0000 </r>
       <r>  -20.0757    1.0000 </r>
       <r>  -20.0719    1.0000 </r>
       <r>  -20.0597    1.0000 </r>
       <r>  -20.0596    1.0000 </r>
       <r>  -20.0442    1.0000 </r>
       <r>  -20.0440    1.0000 </r>
       <r>   -9.6299    1.0000 </r>
       <r>   -9.6289    1.0000 </r>
       <r>   -9.0755    1.0000 </r>
       <r>   -9.0727    1.0000 </r>
       <r>   -4.2789    1.0000 </r>
       <r>   -4.2110    1.0000 </r>
       <r>   -3.5146    1.0000 </r>
       <r>   -3.5112    1.0000 </r>
       <r>   -0.0667    1.0000 </r>
       <r>    0.2408    1.0000 </r>
       <r>    0.6685    1.0000 </r>
       <r>    0.6802    1.0000 </r>
       <r>    1.1859    1.0000 </r>
       <r>    1.3090    1.0000 </r>
       <r>    2.3546    1.0000 </r>
       <r>    2.3637    1.0000 </r>
       <r>    3.4577    0.0000 </r>
       <r>    3.5063    0.0000 </r>
       <r>    4.5425    0.0000 </r>
       <r>    4.6636    0.0000 </r>
       <r>    6.9957    0.0000 </r>
       <r>    7.0443    0.0000 </r>
       <r>    7.3890    0.0000 </r>
       <r>    7.4229    0.0000 </r>
       <r>    7.6391    0.0000 </r>
       <r>    7.6541    0.0000 </r>
       <r>    8.1398    0.0000 </r>
       <r>    8.1484    0.0000 </r>
       <r>    9.8111    0.0000 </r>
       <r>    9.8700    0.0000 </r>
      </set>
      <set comment="kpoint 29">
       <r>  -23.1597    1.0000 </r>
       <r>  -23.1591    1.0000 </r>
       <r>  -23.1522    1.0000 </r>
       <r>  -23.1505    1.0000 </r>
       <r>  -20.0757    1.0000 </r>
       <r>  -20.0719    1.0000 </r>
       <r>  -20.0597    1.0000 </r>
       <r>  -20.0596    1.0000 </r>
       <r>  -20.0442    1.0000 </r>
       <r>  -20.0440    1.0000 </r>
       <r>   -9.6299    1.0000 </r>
       <r>   -9.6289    1.0000 </r>
       <r>   -9.0755    1.0000 </r>
       <r>   -9.0727    1.0000 </r>
       <r>   -4.2789    1.0000 </r>
       <r>   -4.2110    1.0000 </r>
       <r>   -3.5146    1.0000 </r>
       <r>   -3.5112    1.0000 </r>
       <r>   -0.0667    1.0000 </r>
       <r>    0.2408    1.0000 </r>
       <r>    0.6685    1.0000 </r>
       <r>    0.6802    1.0000 </r>
       <r>    1.1859    1.0000 </r>
       <r>    1.3090    1.0000 </r>
       <r>    2.3546    1.0000 </r>
       <r>    2.3637    1.0000 </r>
       <r>    3.4577    0.0000 </r>
       <r>    3.5063    0.0000 </r>
       <r>    4.5425    0.0000 </r>
       <r>    4.6636    0.0000 </r>
       <r>    6.9957    0.0000 </r>
       <r>    7.0443    0.0000 </r>
       <r>    7.3890    0.0000 </r>
       <r>    7.4229    0.0000 </r>
       <r>    7.6391    0.0000 </r>
       <r>    7.6541    0.0000 </r>
       <r>    8.1398    0.0000 </r>
       <r>    8.1484    0.0000 </r>
       <r>    9.8111    0.0000 </r>
       <r>    9.8700    0.0000 </r>
      </set>
      <set comment="kpoint 30">
       <r>  -23.1594    1.0000 </r>
       <r>  -23.1581    1.0000 </r>
       <r>  -23.1545    1.0000 </r>
       <r>  -23.1519    1.0000 </r>
       <r>  -20.0785    1.0000 </r>
       <r>  -20.0722    1.0000 </r>
       <r>  -20.0585    1.0000 </r>
       <r>  -20.0568    1.0000 </r>
       <r>  -20.0480    1.0000 </r>
[...]
       <r>     3.1264     0.0000     0.0000 </r>
       <r>     3.2569     0.0000     0.0000 </r>
       <r>     3.3875     0.0000     0.0000 </r>
       <r>     3.5180     0.0000     0.0000 </r>
       <r>     3.6486     0.0000     0.0000 </r>
       <r>     3.7791     0.0000     0.0000 </r>
       <r>     3.9097     0.0000     0.0000 </r>
       <r>     4.0402     0.0000     0.0000 </r>
       <r>     4.1708     0.0000     0.0000 </r>
       <r>     4.3013     0.0000     0.0000 </r>
       <r>     4.4319     0.0000     0.0000 </r>
       <r>     4.5624     0.0000     0.0000 </r>
       <r>     4.6930     0.0000     0.0000 </r>
       <r>     4.8235     0.0000     0.0000 </r>
       <r>     4.9541     0.0000     0.0000 </r>
       <r>     5.0846     0.0000     0.0000 </r>
       <r>     5.2151     0.0000     0.0000 </r>
       <r>     5.3457     0.0000     0.0000 </r>
       <r>     5.4762     0.0000     0.0000 </r>
       <r>     5.6068     0.0000     0.0000 </r>
       <r>     5.7373     0.0000     0.0000 </r>
       <r>     5.8679     0.0000     0.0000 </r>
       <r>     5.9984     0.0000     0.0000 </r>
       <r>     6.1290     0.0000     0.0000 </r>
       <r>     6.2595     0.0000     0.0000 </r>
       <r>     6.3901     0.0000     0.0000 </r>
       <r>     6.5206     0.0000     0.0000 </r>
       <r>     6.6512     0.0000     0.0000 </r>
       <r>     6.7817     0.0000     0.0000 </r>
       <r>     6.9123     0.0000     0.0000 </r>
       <r>     7.0428     0.0000     0.0000 </r>
       <r>     7.1734     0.0000     0.0000 </r>
       <r>     7.3039     0.0000     0.0000 </r>
       <r>     7.4345     0.0000     0.0000 </r>
       <r>     7.5650     0.0000     0.0000 </r>
       <r>     7.6956     0.0000     0.0000 </r>
       <r>     7.8261     0.0000     0.0000 </r>
       <r>     7.9567     0.0000     0.0000 </r>
       <r>     8.0872     0.0000     0.0000 </r>
       <r>     8.2178     0.0000     0.0000 </r>
       <r>     8.3483     0.0000     0.0000 </r>
       <r>     8.4788     0.0000     0.0000 </r>
       <r>     8.6094     0.0000     0.0000 </r>
       <r>     8.7399     0.0000     0.0000 </r>
       <r>     8.8705     0.0000     0.0000 </r>
       <r>     9.0010     0.0000     0.0000 </r>
       <r>     9.1316     0.0000     0.0000 </r>
       <r>     9.2621     0.0000     0.0000 </r>
       <r>     9.3927     0.0000     0.0000 </r>
       <r>     9.5232     0.0000     0.0000 </r>
       <r>     9.6538     0.0000     0.0000 </r>
       <r>     9.7843     0.0000     0.0000 </r>
       <r>     9.9149     0.0000     0.0000 </r>
       <r>    10.0454     0.0000     0.0000 </r>
       <r>    10.1760     0.0000     0.0000 </r>
       <r>    10.3065     0.0000     0.0000 </r>
       <r>    10.4371     0.0000     0.0000 </r>
       <r>    10.5676     0.0000     0.0000 </r>
       <r>    10.6982     0.0000     0.0000 </r>
       <r>    10.8287     0.0000     0.0000 </r>
       <r>    10.9593     0.0000     0.0000 </r>
       <r>    11.0898     0.0000     0.0000 </r>
       <r>    11.2204     0.0000     0.0000 </r>
       <r>    11.3509     0.0000     0.0000 </r>
       <r>    11.4815     0.0000     0.0000 </r>
       <r>    11.6120     0.0000     0.0000 </r>
       <r>    11.7425     0.0000     0.0000 </r>
       <r>    11.8731     0.0000     0.0000 </r>
       <r>    12.0036     0.0000     0.0000 </r>
       <r>    12.1342     0.0000     0.0000 </r>
       <r>    12.2647     0.0000     0.0000 </r>
       <r>    12.3953     0.0000     0.0000 </r>
       <r>    12.5258     0.0000     0.0000 </r>
       <r>    12.6564     0.0000     0.0000 </r>
       <r>    12.7869     0.0000     0.0000 </r>
       <r>    12.9175     0.0000     0.0000 </r>
       <r>    13.0480     0.0000     0.0000 </r>
       <r>    13.1786     0.0000     0.0000 </r>
       <r>    13.3091     0.0000     0.0000 </r>
       <r>    13.4397     0.0000     0.0000 </r>
       <r>    13.5702     0.0000     0.0000 </r>
       <r>    13.7008     0.0000     0.0000 </r>
       <r>    13.8313     0.0000     0.0000 </r>
       <r>    13.9619     0.0000     0.0000 </r>
       <r>    14.0924     0.0000     0.0000 </r>
       <r>    14.2230     0.0000     0.0000 </r>
      </set>
      <set comment="spin 4">
       <r>   -24.9414     0.0000     0.0000 </r>
       <r>   -24.8109     0.0000     0.0000 </r>
       <r>   -24.6803     0.0000     0.0000 </r>
       <r>   -24.5498     0.0000     0.0000 </r>
       <r>   -24.4193     0.0000     0.0000 </r>
       <r>   -24.2887     0.0000     0.0000 </r>
       <r>   -24.1582     0.0000     0.0000 </r>
       <r>   -24.0276     0.0000     0.0000 </r>
       <r>   -23.8971     0.0000     0.0000 </r>
       <r>   -23.7665     0.0000     0.0000 </r>
       <r>   -23.6360     0.0000     0.0000 </r>
       <r>   -23.5054     0.0000     0.0000 </r>
       <r>   -23.3749     0.0000     0.0000 </r>
       <r>   -23.2443     0.0000     0.0000 </r>
       <r>   -23.1138     0.0000     0.0000 </r>
       <r>   -22.9832     0.0000     0.0000 </r>
       <r>   -22.8527     0.0000     0.0000 </r>
       <r>   -22.7221     0.0000     0.0000 </r>
       <r>   -22.5916     0.0000     0.0000 </r>
       <r>   -22.4610     0.0000     0.0000 </r>
       <r>   -22.3305     0.0000     0.0000 </r>
       <r>   -22.1999     0.0000     0.0000 </r>
       <r>   -22.0694     0.0000     0.0000 </r>
       <r>   -21.9388     0.0000     0.0000 </r>
       <r>   -21.8083     0.0000     0.0000 </r>
       <r>   -21.6777     0.0000     0.0000 </r>
       <r>   -21.5472     0.0000     0.0000 </r>
       <r>   -21.4166     0.0000     0.0000 </r>
       <r>   -21.2861     0.0000     0.0000 </r>
       <r>   -21.1556     0.0000     0.0000 </r>
       <r>   -21.0250     0.0000     0.0000 </r>
       <r>   -20.8945     0.0000     0.0000 </r>
       <r>   -20.7639     0.0000     0.0000 </r>
       <r>   -20.6334     0.0000     0.0000 </r>
       <r>   -20.5028     0.0000     0.0000 </r>
       <r>   -20.3723     0.0000     0.0000 </r>
       <r>   -20.2417     0.0000     0.0000 </r>
       <r>   -20.1112     0.0000     0.0000 </r>
       <r>   -19.9806     0.0000     0.0000 </r>
       <r>   -19.8501     0.0000     0.0000 </r>
       <r>   -19.7195     0.0000     0.0000 </r>
       <r>   -19.5890     0.0000     0.0000 </r>
       <r>   -19.4584     0.0000     0.0000 </r>
       <r>   -19.3279     0.0000     0.0000 </r>
       <r>   -19.1973     0.0000     0.0000 </r>
       <r>   -19.0668     0.0000     0.0000 </r>
       <r>   -18.9362     0.0000     0.0000 </r>
       <r>   -18.8057     0.0000     0.0000 </r>
       <r>   -18.6751     0.0000     0.0000 </r>
       <r>   -18.5446     0.0000     0.0000 </r>
       <r>   -18.4140     0.0000     0.0000 </r>
       <r>   -18.2835     0.0000     0.0000 </r>
       <r>   -18.1529     0.0000     0.0000 </r>
       <r>   -18.0224     0.0000     0.0000 </r>
       <r>   -17.8919     0.0000     0.0000 </r>
       <r>   -17.7613     0.0000     0.0000 </r>
       <r>   -17.6308     0.0000     0.0000 </r>
       <r>   -17.5002     0.0000     0.0000 </r>
       <r>   -17.3697     0.0000     0.0000 </r>
       <r>   -17.2391     0.0000     0.0000 </r>
       <r>   -17.1086     0.0000     0.0000 </r>
       <r>   -16.9780     0.0000     0.0000 </r>
       <r>   -16.8475     0.0000     0.0000 </r>
       <r>   -16.7169     0.0000     0.0000 </r>
       <r>   -16.5864     0.0000     0.0000 </r>
       <r>   -16.4558     0.0000     0.0000 </r>
       <r>   -16.3253     0.0000     0.0000 </r>
       <r>   -16.1947     0.0000     0.0000 </r>
       <r>   -16.0642     0.0000     0.0000 </r>
       <r>   -15.9336     0.0000     0.0000 </r>
       <r>   -15.8031     0.0000     0.0000 </r>
       <r>   -15.6725     0.0000     0.0000 </r>
       <r>   -15.5420     0.0000     0.0000 </r>
       <r>   -15.4114     0.0000     0.0000 </r>
       <r>   -15.2809     0.0000     0.0000 </r>
       <r>   -15.1503     0.0000     0.0000 </r>
       <r>   -15.0198     0.0000     0.0000 </r>
       <r>   -14.8892     0.0000     0.0000 </r>
       <r>   -14.7587     0.0000     0.0000 </r>
       <r>   -14.6282     0.0000     0.0000 </r>
       <r>   -14.4976     0.0000     0.0000 </r>
       <r>   -14.3671     0.0000     0.0000 </r>
       <r>   -14.2365     0.0000     0.0000 </r>
       <r>   -14.1060     0.0000     0.0000 </r>
       <r>   -13.9754     0.0000     0.0000 </r>
       <r>   -13.8449     0.0000     0.0000 </r>
       <r>   -13.7143     0.0000     0.0000 </r>
       <r>   -13.5838     0.0000     0.0000 </r>
       <r>   -13.4532     0.0000     0.0000 </r>
       <r>   -13.3227     0.0000     0.0000 </r>
       <r>   -13.1921     0.0000     0.0000 </r>
       <r>   -13.0616     0.0000     0.0000 </r>
       <r>   -12.9310     0.0000     0.0000 </r>
       <r>   -12.8005     0.0000     0.0000 </r>
       <r>   -12.6699     0.0000     0.0000 </r>
       <r>   -12.5394     0.0000     0.0000 </r>
       <r>   -12.4088     0.0000     0.0000 </r>
       <r>   -12.2783     0.0000     0.0000 </r>
       <r>   -12.1477     0.0000     0.0000 </r>
       <r>   -12.0172     0.0000     0.0000 </r>
       <r>   -11.8866     0.0000     0.0000 </r>
       <r>   -11.7561     0.0000     0.0000 </r>
       <r>   -11.6255     0.0000     0.0000 </r>
       <r>   -11.4950     0.0000     0.0000 </r>
       <r>   -11.3645     0.0000     0.0000 </r>
       <r>   -11.2339     0.0000     0.0000 </r>
       <r>   -11.1034     0.0000     0.0000 </r>
       <r>   -10.9728     0.0000     0.0000 </r>
       <r>   -10.8423     0.0000     0.0000 </r>
       <r>   -10.7117     0.0000     0.0000 </r>
       <r>   -10.5812     0.0000     0.0000 </r>
       <r>   -10.4506     0.0000     0.0000 </r>
       <r>   -10.3201     0.0000     0.0000 </r>
       <r>   -10.1895     0.0000     0.0000 </r>
       <r>   -10.0590     0.0000     0.0000 </r>
       <r>    -9.9284     0.0000     0.0000 </r>
       <r>    -9.7979     0.0000     0.0000 </r>
       <r>    -9.6673     0.0000     0.0000 </r>
       <r>    -9.5368     0.0000     0.0000 </r>
       <r>    -9.4062     0.0000     0.0000 </r>
       <r>    -9.2757     0.0000     0.0000 </r>
       <r>    -9.1451     0.0000     0.0000 </r>
       <r>    -9.0146     0.0000     0.0000 </r>
       <r>    -8.8840     0.0000     0.0000 </r>
       <r>    -8.7535     0.0000     0.0000 </r>
       <r>    -8.6229     0.0000     0.0000 </r>
       <r>    -8.4924     0.0000     0.0000 </r>
       <r>    -8.3618     0.0000     0.0000 </r>
       <r>    -8.2313     0.0000     0.0000 </r>
       <r>    -8.1007     0.0000     0.0000 </r>
       <r>    -7.9702     0.0000     0.0000 </r>
       <r>    -7.8397     0.0000     0.0000 </r>
       <r>    -7.7091     0.0000     0.0000 </r>
       <r>    -7.5786     0.0000     0.0000 </r>
       <r>    -7.4480     0.0000     0.0000 </r>
       <r>    -7.3175     0.0000     0.0000 </r>
       <r>    -7.1869     0.0000     0.0000 </r>
       <r>    -7.0564     0.0000     0.0000 </r>
       <r>    -6.9258     0.0000     0.0000 </r>
       <r>    -6.7953     0.0000     0.0000 </r>
       <r>    -6.6647     0.0000     0.0000 </r>
       <r>    -6.5342     0.0000     0.0000 </r>
       <r>    -6.4036     0.0000     0.0000 </r>
       <r>    -6.2731     0.0000     0.0000 </r>
       <r>    -6.1425     0.0000     0.0000 </r>
       <r>    -6.0120     0.0000     0.0000 </r>
       <r>    -5.8814     0.0000     0.0000 </r>
       <r>    -5.7509     0.0000     0.0000 </r>
       <r>    -5.6203     0.0000     0.0000 </r>
       <r>    -5.4898     0.0000     0.0000 </r>
       <r>    -5.3592     0.0000     0.0000 </r>
       <r>    -5.2287     0.0000     0.0000 </r>
       <r>    -5.0981     0.0000     0.0000 </r>
       <r>    -4.9676     0.0000     0.0000 </r>
       <r>    -4.8370     0.0000     0.0000 </r>
       <r>    -4.7065     0.0000     0.0000 </r>
       <r>    -4.5760     0.0000     0.0000 </r>
       <r>    -4.4454     0.0000     0.0000 </r>
       <r>    -4.3149     0.0000     0.0000 </r>
       <r>    -4.1843     0.0000     0.0000 </r>
       <r>    -4.0538     0.0000     0.0000 </r>
       <r>    -3.9232     0.0000     0.0000 </r>
       <r>    -3.7927     0.0000     0.0000 </r>
       <r>    -3.6621     0.0000     0.0000 </r>
       <r>    -3.5316     0.0000     0.0000 </r>
       <r>    -3.4010     0.0000     0.0000 </r>
       <r>    -3.2705     0.0000     0.0000 </r>
       <r>    -3.1399     0.0000     0.0000 </r>
       <r>    -3.0094     0.0000     0.0000 </r>
       <r>    -2.8788     0.0000     0.0000 </r>
       <r>    -2.7483     0.0000     0.0000 </r>
       <r>    -2.6177     0.0000     0.0000 </r>
       <r>    -2.4872     0.0000     0.0000 </r>
       <r>    -2.3566     0.0000     0.0000 </r>
       <r>    -2.2261     0.0000     0.0000 </r>
       <r>    -2.0955     0.0000     0.0000 </r>
       <r>    -1.9650     0.0000     0.0000 </r>
       <r>    -1.8344     0.0000     0.0000 </r>
       <r>    -1.7039     0.0000     0.0000 </r>
       <r>    -1.5733     0.0000     0.0000 </r>
       <r>    -1.4428     0.0000     0.0000 </r>
       <r>    -1.3123     0.0000     0.0000 </r>
       <r>    -1.1817     0.0000     0.0000 </r>
       <r>    -1.0512     0.0000     0.0000 </r>
       <r>    -0.9206     0.0000     0.0000 </r>
       <r>    -0.7901     0.0000     0.0000 </r>
       <r>    -0.6595     0.0000     0.0000 </r>
       <r>    -0.5290     0.0000     0.0000 </r>
       <r>    -0.3984     0.0000     0.0000 </r>
       <r>    -0.2679     0.0000     0.0000 </r>
       <r>    -0.1373     0.0000     0.0000 </r>
       <r>    -0.0068     0.0000     0.0000 </r>
       <r>     0.1238     0.0000     0.0000 </r>
       <r>     0.2543     0.0000     0.0000 </r>
       <r>     0.3849     0.0000     0.0000 </r>
       <r>     0.5154     0.0000     0.0000 </r>
       <r>     0.6460     0.0000     0.0000 </r>
       <r>     0.7765     0.0000     0.0000 </r>
       <r>     0.9071     0.0000     0.0000 </r>
       <r>     1.0376     0.0000     0.0000 </r>
       <r>     1.1682     0.0000     0.0000 </r>
       <r>     1.2987     0.0000     0.0000 </r>
       <r>     1.4293     0.0000     0.0000 </r>
       <r>     1.5598     0.0000     0.0000 </r>
       <r>     1.6904     0.0000     0.0000 </r>
       <r>     1.8209     0.0000     0.0000 </r>
       <r>     1.9514     0.0000     0.0000 </r>
       <r>     2.0820     0.0000     0.0000 </r>
       <r>     2.2125     0.0000     0.0000 </r>
       <r>     2.3431     0.0000     0.0000 </r>
       <r>     2.4736     0.0000     0.0000 </r>
       <r>     2.6042     0.0000     0.0000 </r>
       <r>     2.7347     0.0000     0.0000 </r>
       <r>     2.8653     0.0000     0.0000 </r>
       <r>     2.9958     0.0000     0.0000 </r>
       <r>     3.1264     0.0000     0.0000 </r>
       <r>     3.2569     0.0000     0.0000 </r>
       <r>     3.3875     0.0000     0.0000 </r>
       <r>     3.5180     0.0000     0.0000 </r>
       <r>     3.6486     0.0000     0.0000 </r>
       <r>     3.7791     0.0000     0.0000 </r>
       <r>     3.9097     0.0000     0.0000 </r>
       <r>     4.0402     0.0000     0.0000 </r>
       <r>     4.1708     0.0000     0.0000 </r>
       <r>     4.3013     0.0000     0.0000 </r>
       <r>     4.4319     0.0000     0.0000 </r>
       <r>     4.5624     0.0000     0.0000 </r>
       <r>     4.6930     0.0000     0.0000 </r>
       <r>     4.8235     0.0000     0.0000 </r>
       <r>     4.9541     0.0000     0.0000 </r>
       <r>     5.0846     0.0000     0.0000 </r>
       <r>     5.2151     0.0000     0.0000 </r>
       <r>     5.3457     0.0000     0.0000 </r>
       <r>     5.4762     0.0000     0.0000 </r>
       <r>     5.6068     0.0000     0.0000 </r>
       <r>     5.7373     0.0000     0.0000 </r>
       <r>     5.8679     0.0000     0.0000 </r>
       <r>     5.9984     0.0000     0.0000 </r>
       <r>     6.1290     0.0000     0.0000 </r>
       <r>     6.2595     0.0000     0.0000 </r>
       <r>     6.3901     0.0000     0.0000 </r>
       <r>     6.5206     0.0000     0.0000 </r>
       <r>     6.6512     0.0000     0.0000 </r>
       <r>     6.7817     0.0000     0.0000 </r>
       <r>     6.9123     0.0000     0.0000 </r>
       <r>     7.0428     0.0000     0.0000 </r>
       <r>     7.1734     0.0000     0.0000 </r>
       <r>     7.3039     0.0000     0.0000 </r>
       <r>     7.4345     0.0000     0.0000 </r>
       <r>     7.5650     0.0000     0.0000 </r>
       <r>     7.6956     0.0000     0.0000 </r>
       <r>     7.8261     0.0000     0.0000 </r>
       <r>     7.9567     0.0000     0.0000 </r>
       <r>     8.0872     0.0000     0.0000 </r>
       <r>     8.2178     0.0000     0.0000 </r>
       <r>     8.3483     0.0000     0.0000 </r>
       <r>     8.4788     0.0000     0.0000 </r>
       <r>     8.6094     0.0000     0.0000 </r>
       <r>     8.7399     0.0000     0.0000 </r>
       <r>     8.8705     0.0000     0.0000 </r>
       <r>     9.0010     0.0000     0.0000 </r>
       <r>     9.1316     0.0000     0.0000 </r>
       <r>     9.2621     0.0000     0.0000 </r>
       <r>     9.3927     0.0000     0.0000 </r>
       <r>     9.5232     0.0000     0.0000 </r>
       <r>     9.6538     0.0000     0.0000 </r>
       <r>     9.7843     0.0000     0.0000 </r>
       <r>     9.9149     0.0000     0.0000 </r>
       <r>    10.0454     0.0000     0.0000 </r>
       <r>    10.1760     0.0000     0.0000 </r>
       <r>    10.3065     0.0000     0.0000 </r>
       <r>    10.4371     0.0000     0.0000 </r>
       <r>    10.5676     0.0000     0.0000 </r>
       <r>    10.6982     0.0000     0.0000 </r>
       <r>    10.8287     0.0000     0.0000 </r>
       <r>    10.9593     0.0000     0.0000 </r>
       <r>    11.0898     0.0000     0.0000 </r>
       <r>    11.2204     0.0000     0.0000 </r>
       <r>    11.3509     0.0000     0.0000 </r>
       <r>    11.4815     0.0000     0.0000 </r>
       <r>    11.6120     0.0000     0.0000 </r>
       <r>    11.7425     0.0000     0.0000 </r>
       <r>    11.8731     0.0000     0.0000 </r>
       <r>    12.0036     0.0000     0.0000 </r>
       <r>    12.1342     0.0000     0.0000 </r>
       <r>    12.2647     0.0000     0.0000 </r>
       <r>    12.3953     0.0000     0.0000 </r>
       <r>    12.5258     0.0000     0.0000 </r>
       <r>    12.6564     0.0000     0.0000 </r>
       <r>    12.7869     0.0000     0.0000 </r>
       <r>    12.9175     0.0000     0.0000 </r>
       <r>    13.0480     0.0000     0.0000 </r>
       <r>    13.1786     0.0000     0.0000 </r>
       <r>    13.3091     0.0000     0.0000 </r>
       <r>    13.4397     0.0000     0.0000 </r>
       <r>    13.5702     0.0000     0.0000 </r>
       <r>    13.7008     0.0000     0.0000 </r>
       <r>    13.8313     0.0000     0.0000 </r>
       <r>    13.9619     0.0000     0.0000 </r>
       <r>    14.0924     0.0000     0.0000 </r>
       <r>    14.2230     0.0000     0.0000 </r>
      </set>
     </set>
    </array>
   </total>
  </dos>
 </calculation>
 <structure name="finalpos" >
  <crystal>
   <varray name="basis" >
    <v>       4.30014086       0.00000000       0.00000000 </v>
    <v>       0.00000000       4.30014086       0.00000000 </v>
    <v>       0.00000000       0.00000000       6.14586115 </v>
   </varray>
   <i name="volume">    113.64441771 </i>
   <varray name="rec_basis" >
    <v>       0.23255052       0.00000000       0.00000000 </v>
    <v>       0.00000000       0.23255052       0.00000000 </v>
    <v>       0.00000000       0.00000000       0.16271113 </v>
   </varray>
  </crystal>
  <varray name="positions" >
   <v>       0.50000000       0.00000000       0.72573602 </v>
   <v>       0.00000000       0.50000000       0.27426400 </v>
   <v>       0.00000000       0.00000000       0.00000000 </v>
   <v>       0.50000000       0.50000000       0.50000000 </v>
  </varray>
 </structure>
</modeling>
