   4   4   0   0
  0.2841110E+02  0.4300141E-09  0.4300141E-09  0.6145861E-09  0.5000000E-15
  1.000000000000000E-004
  CAR 
 Sn                                      
     15.27659150    -22.63817024  301      3.17172519      1.00000000
    -22.638  0.0000E+00  0.0000E+00
    -22.512  0.0000E+00  0.0000E+00
    -22.385  0.0000E+00  0.0000E+00
    -22.259  0.0000E+00  0.0000E+00
    -22.133  0.0000E+00  0.0000E+00
    -22.006  0.0000E+00  0.0000E+00
    -21.880  0.0000E+00  0.0000E+00
    -21.753  0.0000E+00  0.0000E+00
    -21.627  0.0000E+00  0.0000E+00
    -21.501  0.0000E+00  0.0000E+00
    -21.374  0.0000E+00  0.0000E+00
    -21.248  0.0000E+00  0.0000E+00
    -21.122  0.4145E-07  0.5239E-08
    -20.995  0.2621E+00  0.3313E-01
    -20.869  0.2749E+02  0.3507E+01
    -20.742  0.3902E+01  0.4000E+01
    -20.616  0.3862E-04  0.4000E+01
    -20.490  0.0000E+00  0.4000E+01
    -20.363  0.0000E+00  0.4000E+01
    -20.237  0.0000E+00  0.4000E+01
    -20.111  0.0000E+00  0.4000E+01
    -19.984  0.0000E+00  0.4000E+01
    -19.858  0.0000E+00  0.4000E+01
    -19.731  0.0000E+00  0.4000E+01
    -19.605  0.0000E+00  0.4000E+01
    -19.479  0.0000E+00  0.4000E+01
    -19.352  0.0000E+00  0.4000E+01
    -19.226  0.0000E+00  0.4000E+01
    -19.099  0.0000E+00  0.4000E+01
    -18.973  0.0000E+00  0.4000E+01
    -18.847  0.0000E+00  0.4000E+01
    -18.720  0.0000E+00  0.4000E+01
    -18.594  0.0000E+00  0.4000E+01
    -18.468  0.0000E+00  0.4000E+01
    -18.341  0.0000E+00  0.4000E+01
    -18.215  0.2363E-10  0.4000E+01
    -18.088  0.5949E-02  0.4001E+01
    -17.962  0.1879E+02  0.6376E+01
    -17.836  0.2864E+02  0.9995E+01
    -17.709  0.3849E-01  0.1000E+02
    -17.583  0.7526E-09  0.1000E+02
    -17.456  0.0000E+00  0.1000E+02
    -17.330  0.0000E+00  0.1000E+02
    -17.204  0.0000E+00  0.1000E+02
    -17.077  0.0000E+00  0.1000E+02
    -16.951  0.0000E+00  0.1000E+02
    -16.825  0.0000E+00  0.1000E+02
    -16.698  0.0000E+00  0.1000E+02
    -16.572  0.0000E+00  0.1000E+02
    -16.445  0.0000E+00  0.1000E+02
    -16.319  0.0000E+00  0.1000E+02
    -16.193  0.0000E+00  0.1000E+02
    -16.066  0.0000E+00  0.1000E+02
    -15.940  0.0000E+00  0.1000E+02
    -15.814  0.0000E+00  0.1000E+02
    -15.687  0.0000E+00  0.1000E+02
    -15.561  0.0000E+00  0.1000E+02
    -15.434  0.0000E+00  0.1000E+02
    -15.308  0.0000E+00  0.1000E+02
    -15.182  0.0000E+00  0.1000E+02
    -15.055  0.0000E+00  0.1000E+02
    -14.929  0.0000E+00  0.1000E+02
    -14.802  0.0000E+00  0.1000E+02
    -14.676  0.0000E+00  0.1000E+02
    -14.550  0.0000E+00  0.1000E+02
    -14.423  0.0000E+00  0.1000E+02
    -14.297  0.0000E+00  0.1000E+02
    -14.171  0.0000E+00  0.1000E+02
    -14.044  0.0000E+00  0.1000E+02
    -13.918  0.0000E+00  0.1000E+02
    -13.791  0.0000E+00  0.1000E+02
    -13.665  0.0000E+00  0.1000E+02
    -13.539  0.0000E+00  0.1000E+02
    -13.412  0.0000E+00  0.1000E+02
    -13.286  0.0000E+00  0.1000E+02
    -13.159  0.0000E+00  0.1000E+02
    -13.033  0.0000E+00  0.1000E+02
    -12.907  0.0000E+00  0.1000E+02
    -12.780  0.0000E+00  0.1000E+02
    -12.654  0.0000E+00  0.1000E+02
    -12.528  0.0000E+00  0.1000E+02
    -12.401  0.0000E+00  0.1000E+02
    -12.275  0.0000E+00  0.1000E+02
    -12.148  0.0000E+00  0.1000E+02
    -12.022  0.0000E+00  0.1000E+02
    -11.896  0.0000E+00  0.1000E+02
    -11.769  0.0000E+00  0.1000E+02
    -11.643  0.0000E+00  0.1000E+02
    -11.517  0.0000E+00  0.1000E+02
    -11.390  0.0000E+00  0.1000E+02
    -11.264  0.0000E+00  0.1000E+02
    -11.137  0.0000E+00  0.1000E+02
    -11.011  0.0000E+00  0.1000E+02
    -10.885  0.0000E+00  0.1000E+02
    -10.758  0.0000E+00  0.1000E+02
    -10.632  0.0000E+00  0.1000E+02
    -10.505  0.0000E+00  0.1000E+02
    -10.379  0.0000E+00  0.1000E+02
    -10.253  0.0000E+00  0.1000E+02
    -10.126  0.0000E+00  0.1000E+02
    -10.000  0.0000E+00  0.1000E+02
     -9.874  0.0000E+00  0.1000E+02
     -9.747  0.0000E+00  0.1000E+02
     -9.621  0.0000E+00  0.1000E+02
     -9.494  0.0000E+00  0.1000E+02
     -9.368  0.2416E-10  0.1000E+02
     -9.242  0.3182E-03  0.1000E+02
     -9.115  0.5803E-01  0.1001E+02
     -8.989  0.3743E+00  0.1005E+02
     -8.862  0.7889E+00  0.1015E+02
     -8.736  0.5809E+00  0.1023E+02
     -8.610  0.9589E+00  0.1035E+02
     -8.483  0.1998E+01  0.1060E+02
     -8.357  0.6953E+00  0.1069E+02
     -8.231  0.1573E+01  0.1089E+02
     -8.104  0.2459E+01  0.1120E+02
     -7.978  0.3040E+01  0.1158E+02
     -7.851  0.2414E+01  0.1189E+02
     -7.725  0.3805E+01  0.1237E+02
     -7.599  0.4128E+01  0.1289E+02
     -7.472  0.4259E+01  0.1343E+02
     -7.346  0.3067E+01  0.1382E+02
     -7.220  0.1410E+01  0.1399E+02
     -7.093  0.4095E-01  0.1400E+02
     -6.967  0.4137E-07  0.1400E+02
     -6.840  0.0000E+00  0.1400E+02
     -6.714  0.0000E+00  0.1400E+02
     -6.588  0.0000E+00  0.1400E+02
     -6.461  0.0000E+00  0.1400E+02
     -6.335  0.0000E+00  0.1400E+02
     -6.208  0.0000E+00  0.1400E+02
     -6.082  0.0000E+00  0.1400E+02
     -5.956  0.0000E+00  0.1400E+02
     -5.829  0.0000E+00  0.1400E+02
     -5.703  0.0000E+00  0.1400E+02
     -5.577  0.0000E+00  0.1400E+02
     -5.450  0.0000E+00  0.1400E+02
     -5.324  0.0000E+00  0.1400E+02
     -5.197  0.0000E+00  0.1400E+02
     -5.071  0.0000E+00  0.1400E+02
     -4.945  0.0000E+00  0.1400E+02
     -4.818  0.0000E+00  0.1400E+02
     -4.692  0.0000E+00  0.1400E+02
     -4.565  0.0000E+00  0.1400E+02
     -4.439  0.0000E+00  0.1400E+02
     -4.313  0.0000E+00  0.1400E+02
     -4.186  0.0000E+00  0.1400E+02
     -4.060  0.0000E+00  0.1400E+02
     -3.934  0.0000E+00  0.1400E+02
     -3.807  0.1847E-10  0.1400E+02
     -3.681  0.4908E-03  0.1400E+02
     -3.554  0.4048E+00  0.1405E+02
     -3.428  0.1752E+01  0.1427E+02
     -3.302  0.4421E+01  0.1483E+02
     -3.175  0.4719E+01  0.1543E+02
     -3.049  0.2867E+01  0.1579E+02
     -2.922  0.2257E+01  0.1608E+02
     -2.796  0.3094E+01  0.1647E+02
     -2.670  0.6236E+00  0.1655E+02
     -2.543  0.8270E+00  0.1665E+02
     -2.417  0.1402E+01  0.1683E+02
     -2.291  0.1048E+01  0.1696E+02
     -2.164  0.1674E+01  0.1717E+02
     -2.038  0.1041E+01  0.1730E+02
     -1.911  0.2151E+00  0.1733E+02
     -1.785  0.7236E-01  0.1734E+02
     -1.659  0.4758E-01  0.1734E+02
     -1.532  0.1067E+01  0.1748E+02
     -1.406  0.8195E+00  0.1758E+02
     -1.280  0.3080E+00  0.1762E+02
     -1.153  0.8016E+00  0.1772E+02
     -1.027  0.2583E+00  0.1776E+02
     -0.900  0.5720E-01  0.1776E+02
     -0.774  0.6082E-01  0.1777E+02
     -0.648  0.9094E+00  0.1789E+02
     -0.521  0.1821E+01  0.1812E+02
     -0.395  0.1851E+01  0.1835E+02
     -0.268  0.1844E+01  0.1858E+02
     -0.142  0.2479E+01  0.1890E+02
     -0.016  0.2933E+01  0.1927E+02
      0.111  0.1639E+01  0.1947E+02
      0.237  0.4302E+01  0.2002E+02
      0.363  0.2696E+01  0.2036E+02
      0.490  0.2087E+01  0.2062E+02
      0.616  0.3124E+01  0.2102E+02
      0.743  0.4303E+01  0.2156E+02
      0.869  0.3422E+01  0.2199E+02
      0.995  0.4126E+01  0.2252E+02
      1.122  0.1987E+01  0.2277E+02
      1.248  0.3214E+01  0.2317E+02
      1.375  0.2645E+01  0.2351E+02
      1.501  0.1923E+01  0.2375E+02
      1.627  0.1578E+01  0.2395E+02
      1.754  0.2006E+01  0.2420E+02
      1.880  0.2112E+01  0.2447E+02
      2.006  0.1983E+01  0.2472E+02
      2.133  0.2093E+01  0.2498E+02
      2.259  0.1320E+01  0.2515E+02
      2.386  0.1295E+01  0.2532E+02
      2.512  0.8481E+00  0.2542E+02
      2.638  0.1633E+01  0.2563E+02
      2.765  0.1027E+01  0.2576E+02
      2.891  0.8189E+00  0.2586E+02
      3.017  0.1518E+00  0.2588E+02
      3.144  0.6994E+00  0.2597E+02
      3.270  0.6880E+00  0.2606E+02
      3.397  0.6941E-01  0.2607E+02
      3.523  0.1321E-01  0.2607E+02
      3.649  0.8675E+00  0.2618E+02
      3.776  0.9587E+00  0.2630E+02
      3.902  0.4090E+00  0.2635E+02
      4.029  0.1063E+01  0.2648E+02
      4.155  0.1315E+01  0.2665E+02
      4.281  0.1420E+01  0.2683E+02
      4.408  0.2067E+01  0.2709E+02
      4.534  0.2881E+01  0.2745E+02
      4.660  0.3495E+01  0.2790E+02
      4.787  0.2815E+01  0.2825E+02
      4.913  0.2869E+01  0.2861E+02
      5.040  0.2502E+01  0.2893E+02
      5.166  0.2052E+01  0.2919E+02
      5.292  0.3195E+01  0.2959E+02
      5.419  0.2749E+01  0.2994E+02
      5.545  0.1929E+01  0.3019E+02
      5.672  0.7196E+00  0.3028E+02
      5.798  0.2058E+01  0.3054E+02
      5.924  0.2594E+01  0.3086E+02
      6.051  0.1018E+01  0.3099E+02
      6.177  0.2228E+01  0.3127E+02
      6.303  0.6863E+00  0.3136E+02
      6.430  0.1803E+01  0.3159E+02
      6.556  0.1445E+01  0.3177E+02
      6.683  0.3174E+01  0.3217E+02
      6.809  0.4704E+01  0.3277E+02
      6.935  0.3057E+01  0.3315E+02
      7.062  0.3630E+01  0.3361E+02
      7.188  0.2717E+01  0.3396E+02
      7.314  0.2209E+01  0.3424E+02
      7.441  0.3376E+01  0.3466E+02
      7.567  0.3544E+01  0.3511E+02
      7.694  0.2808E+01  0.3546E+02
      7.820  0.1681E+01  0.3568E+02
      7.946  0.3626E+01  0.3614E+02
      8.073  0.3856E+01  0.3662E+02
      8.199  0.3024E+01  0.3700E+02
      8.326  0.3184E+01  0.3741E+02
      8.452  0.2900E+01  0.3777E+02
      8.578  0.2473E+01  0.3809E+02
      8.705  0.2878E+01  0.3845E+02
      8.831  0.2230E+01  0.3873E+02
      8.957  0.1524E+01  0.3892E+02
      9.084  0.1799E+01  0.3915E+02
      9.210  0.2751E+01  0.3950E+02
      9.337  0.1966E+01  0.3975E+02
      9.463  0.3353E+01  0.4017E+02
      9.589  0.2558E+01  0.4049E+02
      9.716  0.2546E+01  0.4082E+02
      9.842  0.1570E+01  0.4102E+02
      9.969  0.1967E+01  0.4126E+02
     10.095  0.2106E+01  0.4153E+02
     10.221  0.2171E+01  0.4180E+02
     10.348  0.2891E+01  0.4217E+02
     10.474  0.2503E+01  0.4249E+02
     10.600  0.3245E+01  0.4290E+02
     10.727  0.2733E+01  0.4324E+02
     10.853  0.3121E+01  0.4364E+02
     10.980  0.2320E+01  0.4393E+02
     11.106  0.3265E+01  0.4434E+02
     11.232  0.3736E+01  0.4481E+02
     11.359  0.3428E+01  0.4525E+02
     11.485  0.2624E+01  0.4558E+02
     11.611  0.3853E+01  0.4607E+02
     11.738  0.2327E+01  0.4636E+02
     11.864  0.1314E+01  0.4653E+02
     11.991  0.9540E+00  0.4665E+02
     12.117  0.1926E+01  0.4689E+02
     12.243  0.1545E+01  0.4709E+02
     12.370  0.1253E+01  0.4724E+02
     12.496  0.1674E+01  0.4746E+02
     12.623  0.5645E+00  0.4753E+02
     12.749  0.2598E+00  0.4756E+02
     12.875  0.3564E+00  0.4760E+02
     13.002  0.6196E+00  0.4768E+02
     13.128  0.9244E+00  0.4780E+02
     13.254  0.7832E+00  0.4790E+02
     13.381  0.4194E+00  0.4795E+02
     13.507  0.2412E+00  0.4798E+02
     13.634  0.1419E+00  0.4800E+02
     13.760  0.1481E-02  0.4800E+02
     13.886  0.3186E-09  0.4800E+02
     14.013  0.0000E+00  0.4800E+02
     14.139  0.0000E+00  0.4800E+02
     14.266  0.0000E+00  0.4800E+02
     14.392  0.0000E+00  0.4800E+02
     14.518  0.0000E+00  0.4800E+02
     14.645  0.0000E+00  0.4800E+02
     14.771  0.0000E+00  0.4800E+02
     14.897  0.0000E+00  0.4800E+02
     15.024  0.0000E+00  0.4800E+02
     15.150  0.0000E+00  0.4800E+02
     15.277  0.0000E+00  0.4800E+02
