       N       E                     dE             d eps       ncg     rms          rms(c)
DAV:   1    -0.136415301486E+02   -0.13642E+02   -0.11231E+00 34848   0.139E+01    0.109E+01
DAV:   2    -0.153459645549E+02   -0.17044E+01   -0.86738E-01 28632   0.111E+01    0.399E+00
DAV:   3    -0.156191256707E+02   -0.27316E+00   -0.17355E-01 34728   0.334E+00    0.180E+00
DAV:   4    -0.156327927765E+02   -0.13667E-01   -0.78367E-02 30576   0.129E+00    0.791E-01
DAV:   5    -0.156310063850E+02    0.17864E-02   -0.99149E-03 30240   0.115E+00    0.356E-01
DAV:   6    -0.156320505490E+02   -0.10442E-02   -0.21271E-03 30408   0.540E-01    0.944E-02
DAV:   7    -0.156325935283E+02   -0.54298E-03   -0.68113E-04 28776   0.156E-01    0.483E-02
DAV:   8    -0.156327555402E+02   -0.16201E-03   -0.13020E-04 31224   0.553E-02    0.228E-02
DAV:   9    -0.156328031091E+02   -0.47569E-04   -0.41178E-05 30768   0.309E-02    0.826E-03
DAV:  10    -0.156328084647E+02   -0.53556E-05   -0.43374E-06 32112   0.115E-02    0.389E-03
DAV:  11    -0.156328098114E+02   -0.13467E-05   -0.13508E-06 29496   0.630E-03    0.167E-03
DAV:  12    -0.156328101097E+02   -0.29827E-06   -0.38445E-07 31224   0.337E-03    0.645E-04
DAV:  13    -0.156328101803E+02   -0.70636E-07   -0.41881E-08 26496   0.971E-04
   1 F= -.15632810E+02 E0= -.15632122E+02  d E =-.137663E-02  mag=    -0.0000    -0.0000     0.0000
