 vasp.5.4.4.18Apr17-6-g9f103f2a35 (build Dec 22 2021 20:15:33) complex          
  
 executed on             LinuxIFC date 2022.01.22  18:05:51
 running on   24 total cores
 distrk:  each k-point on   24 cores,    1 groups
 distr:  one band on NCORES_PER_BAND=   1 cores,   24 groups


--------------------------------------------------------------------------------------------------------


 INCAR:
 POTCAR:    PAW_PBE Ga 08Apr2002                  
 POTCAR:    PAW_PBE Bi_d 06Sep2000                
 POTCAR:    PAW_PBE As 22Sep2009                  

 ----------------------------------------------------------------------------- 
|                                                                             |
|           W    W    AA    RRRRR   N    N  II  N    N   GGGG   !!!           |
|           W    W   A  A   R    R  NN   N  II  NN   N  G    G  !!!           |
|           W    W  A    A  R    R  N N  N  II  N N  N  G       !!!           |
|           W WW W  AAAAAA  RRRRR   N  N N  II  N  N N  G  GGG   !            |
|           WW  WW  A    A  R   R   N   NN  II  N   NN  G    G                |
|           W    W  A    A  R    R  N    N  II  N    N   GGGG   !!!           |
|                                                                             |
|      For optimal performance we recommend to set                            |
|        NCORE= 4 - approx SQRT( number of cores)                             |
|      NCORE specifies how many cores store one orbital (NPAR=cpu/NCORE).     |
|      This setting can  greatly improve the performance of VASP for DFT.     |
|      The default,   NCORE=1            might be grossly inefficient         |
|      on modern multi-core architectures or massively parallel machines.     |
|      Do your own testing !!!!                                               |
|      Unfortunately you need to use the default for GW and RPA calculations. |
|      (for HF NCORE is supported but not extensively tested yet)             |
|                                                                             |
 ----------------------------------------------------------------------------- 

 POTCAR:    PAW_PBE Ga 08Apr2002                  
   VRHFIN =Ga: s2p1                                                             
   LEXCH  = PE                                                                  
   EATOM  =    58.8688 eV,    4.3267 Ry                                         
                                                                                
   TITEL  = PAW_PBE Ga 08Apr2002                                                
   LULTRA =        F    use ultrasoft PP ?                                      
   IUNSCR =        1    unscreen: 0-lin 1-nonlin 2-no                           
   RPACOR =    2.170    partial core radius                                     
   POMASS =   69.723; ZVAL   =    3.000    mass and valenz                      
   RCORE  =    2.600    outmost cutoff radius                                   
   RWIGS  =    2.650; RWIGS  =    1.402    wigner-seitz radius (au A)           
   ENMAX  =  134.678; ENMIN  =  101.009 eV                                      
   ICORE  =        3    local potential                                         
   LCOR   =        T    correct aug charges                                     
   LPAW   =        T    paw PP                                                  
   EAUG   =  320.264                                                            
   DEXC   =    0.000                                                            
   RMAX   =    2.658    core radius for proj-oper                               
   RAUG   =    1.300    factor for augmentation sphere                          
   RDEP   =    2.684    radius for radial grids                                 
   RDEPT  =    2.308    core radius for aug-charge                              
                                                                                
   Atomic configuration                                                         
   10 entries                                                                   
     n  l   j            E        occ.                                          
     1  0  0.50    -10228.7830   2.0000                                         
     2  0  0.50     -1262.1604   2.0000                                         
     2  1  1.50     -1098.6333   6.0000                                         
     3  0  0.50      -148.1110   2.0000                                         
     3  1  1.50       -98.8436   6.0000                                         
     3  2  2.50       -19.1549  10.0000                                         
     4  0  0.50        -8.9483   2.0000                                         
     4  1  0.50        -2.5791   1.0000                                         
     4  2  1.50         5.4423   0.0000                                         
     4  3  2.50        -2.7416   0.0000                                         
   Description                                                                  
     l       E           TYP  RCUT    TYP  RCUT                                 
     0     -8.9483097     23  2.600                                             
     0     -5.8232215     23  2.600                                             
     1     -2.5790793     23  2.600                                             
     1      5.2230115     23  2.600                                             
     2      1.3605826     23  2.600                                             
     3     -1.3605826      7  2.600                                             
  local pseudopotential read in
  partial core-charges read in
  partial kinetic energy density read in
  atomic valenz-charges read in
  non local Contribution for L=           0  read in
    real space projection operators read in
  non local Contribution for L=           0  read in
    real space projection operators read in
  non local Contribution for L=           1  read in
    real space projection operators read in
  non local Contribution for L=           1  read in
    real space projection operators read in
  non local Contribution for L=           2  read in
    real space projection operators read in
    PAW grid and wavefunctions read in
 
   number of l-projection  operators is LMAX  =           5
   number of lm-projection operators is LMMAX =          13
 
 POTCAR:    PAW_PBE Bi_d 06Sep2000                
   VRHFIN =Bi:                                                                  
   LEXCH  = PE                                                                  
   EATOM  =  1959.2045 eV,  143.9975 Ry                                         
                                                                                
   TITEL  = PAW_PBE Bi_d 06Sep2000                                              
   LULTRA =        F    use ultrasoft PP ?                                      
   IUNSCR =        1    unscreen: 0-lin 1-nonlin 2-no                           
   RPACOR =    2.200    partial core radius                                     
   POMASS =  208.980; ZVAL   =   15.000    mass and valenz                      
   RCORE  =    2.500    outmost cutoff radius                                   
   RWIGS  =    3.090; RWIGS  =    1.635    wigner-seitz radius (au A)           
   ENMAX  =  242.839; ENMIN  =  182.129 eV                                      
   ICORE  =        3    local potential                                         
   LCOR   =        T    correct aug charges                                     
   LPAW   =        T    paw PP                                                  
   EAUG   =  442.899                                                            
   DEXC   =    0.000                                                            
   RMAX   =    2.551    core radius for proj-oper                               
   RAUG   =    1.300    factor for augmentation sphere                          
   RDEP   =    2.650    radius for radial grids                                 
   RDEPT  =    2.039    core radius for aug-charge                              
                                                                                
   Atomic configuration                                                         
   16 entries                                                                   
     n  l   j            E        occ.                                          
     1  0  0.50    -90639.6581   2.0000                                         
     2  0  0.50    -16282.4666   2.0000                                         
     2  1  1.50    -13922.8286   6.0000                                         
     3  0  0.50     -3930.4763   2.0000                                         
     3  1  1.50     -3256.7013   6.0000                                         
     3  2  2.50     -2581.6168  10.0000                                         
     4  0  0.50      -902.2614   2.0000                                         
     4  1  1.50      -681.5915   6.0000                                         
     4  2  2.50      -429.8249  10.0000                                         
     4  3  3.50      -152.6004  14.0000                                         
     5  0  0.50      -157.7156   2.0000                                         
     5  1  1.50       -95.8054   6.0000                                         
     5  2  2.50       -27.0806  10.0000                                         
     6  0  0.50       -14.4732   2.0000                                         
     6  1  1.50        -4.5702   3.0000                                         
     5  3  2.50        -2.7212   0.0000                                         
   Description                                                                  
     l       E           TYP  RCUT    TYP  RCUT                                 
     2    -27.0805982     23  2.500                                             
     2     -1.3605826     23  2.500                                             
     0    -14.4732271     23  2.500                                             
     0      6.8029130     23  2.500                                             
     1     -4.5701651     23  2.500                                             
     1     13.6058260     23  2.500                                             
     3     -1.3605826      7  2.500                                             
  local pseudopotential read in
  partial core-charges read in
  partial kinetic energy density read in
  atomic valenz-charges read in
  non local Contribution for L=           2  read in
    real space projection operators read in
  non local Contribution for L=           2  read in
    real space projection operators read in
  non local Contribution for L=           0  read in
    real space projection operators read in
  non local Contribution for L=           0  read in
    real space projection operators read in
  non local Contribution for L=           1  read in
    real space projection operators read in
  non local Contribution for L=           1  read in
    real space projection operators read in
    PAW grid and wavefunctions read in
 
   number of l-projection  operators is LMAX  =           6
   number of lm-projection operators is LMMAX =          18
 
 POTCAR:    PAW_PBE As 22Sep2009                  
   VRHFIN =As: s2p3                                                             
   LEXCH  = PE                                                                  
   EATOM  =   170.1867 eV,   12.5084 Ry                                         
                                                                                
   TITEL  = PAW_PBE As 22Sep2009                                                
   LULTRA =        F    use ultrasoft PP ?                                      
   IUNSCR =        1    unscreen: 0-lin 1-nonlin 2-no                           
   RPACOR =    1.900    partial core radius                                     
   POMASS =   74.922; ZVAL   =    5.000    mass and valenz                      
   RCORE  =    2.100    outmost cutoff radius                                   
   RWIGS  =    2.300; RWIGS  =    1.217    wigner-seitz radius (au A)           
   ENMAX  =  208.702; ENMIN  =  156.526 eV                                      
   ICORE  =        3    local potential                                         
   LCOR   =        T    correct aug charges                                     
   LPAW   =        T    paw PP                                                  
   EAUG   =  462.758                                                            
   DEXC   =    0.000                                                            
   RMAX   =    2.144    core radius for proj-oper                               
   RAUG   =    1.300    factor for augmentation sphere                          
   RDEP   =    2.140    radius for radial grids                                 
   RDEPT  =    1.956    core radius for aug-charge                              
                                                                                
   Atomic configuration                                                         
   10 entries                                                                   
     n  l   j            E        occ.                                          
     1  0  0.50    -11718.0418   2.0000                                         
     2  0  0.50     -1486.5454   2.0000                                         
     2  1  1.50     -1303.3889   6.0000                                         
     3  0  0.50      -190.2849   2.0000                                         
     3  1  1.50      -133.6555   6.0000                                         
     3  2  2.50       -40.6443  10.0000                                         
     4  0  0.50       -14.4936   2.0000                                         
     4  1  0.50        -5.1947   3.0000                                         
     4  2  1.50        -5.4423   0.0000                                         
     4  3  2.50        -5.4423   0.0000                                         
   Description                                                                  
     l       E           TYP  RCUT    TYP  RCUT                                 
     0    -14.4935570     23  2.100                                             
     0    -11.9212055     23  2.100                                             
     1     -5.1947127     23  2.100                                             
     1     27.2116520     23  2.100                                             
     2     -5.4423304     23  2.100                                             
     3     -1.3605826      7  2.100                                             
  local pseudopotential read in
  partial core-charges read in
  partial kinetic energy density read in
  atomic valenz-charges read in
  non local Contribution for L=           0  read in
    real space projection operators read in
  non local Contribution for L=           0  read in
    real space projection operators read in
  non local Contribution for L=           1  read in
    real space projection operators read in
  non local Contribution for L=           1  read in
    real space projection operators read in
  non local Contribution for L=           2  read in
    real space projection operators read in
    PAW grid and wavefunctions read in
 
   number of l-projection  operators is LMAX  =           5
   number of lm-projection operators is LMMAX =          13
 
  PAW_PBE Ga 08Apr2002                  :
 energy of atom  1       EATOM=  -58.8688
 kinetic energy error for atom=    0.0000 (will be added to EATOM!!)
  PAW_PBE Bi_d 06Sep2000                :
 energy of atom  2       EATOM=-1959.2045
 kinetic energy error for atom=    0.0049 (will be added to EATOM!!)
  PAW_PBE As 22Sep2009                  :
 energy of atom  3       EATOM= -170.1867
 kinetic energy error for atom=    0.0005 (will be added to EATOM!!)
 
 
 POSCAR: Ga2 Bi1 As1                             
  positions in direct lattice
  No initial velocities read in
 exchange correlation table for  LEXCH =        8
   RHO(1)=    0.500       N(1)  =     2000
   RHO(2)=  100.500       N(2)  =     4000
 


--------------------------------------------------------------------------------------------------------


 ion  position               nearest neighbor table
   1  0.500  0.000  0.726-   4 2.56   4 2.56   3 2.73   3 2.73
   2  0.000  0.500  0.274-   4 2.56   4 2.56   3 2.73   3 2.73
   3  0.000  0.000  0.000-   1 2.73   1 2.73   2 2.73   2 2.73
   4  0.500  0.500  0.500-   2 2.56   2 2.56   1 2.56   1 2.56
 

IMPORTANT INFORMATION: All symmetrisations will be switched off!
NOSYMM: (Re-)initialisation of all symmetry stuff for point group C_1.

 
 
 KPOINTS: MP                                      

Automatic generation of k-mesh.
Space group operators:
 irot       det(A)        alpha          n_x          n_y          n_z        tau_x        tau_y        tau_z
    1     1.000000     0.000001     1.000000     0.000000     0.000000     0.000000     0.000000     0.000000
 
 Subroutine IBZKPT returns following result:
 ===========================================
 
 Found    245 irreducible k-points:
 
 Following reciprocal coordinates:
            Coordinates               Weight
  0.000000  0.000000  0.000000      1.000000
  0.142857  0.000000  0.000000      1.000000
  0.285714  0.000000  0.000000      1.000000
  0.428571  0.000000  0.000000      1.000000
 -0.428571  0.000000  0.000000      1.000000
 -0.285714  0.000000  0.000000      1.000000
 -0.142857  0.000000  0.000000      1.000000
  0.000000  0.142857  0.000000      1.000000
  0.142857  0.142857  0.000000      1.000000
  0.285714  0.142857  0.000000      1.000000
  0.428571  0.142857  0.000000      1.000000
 -0.428571  0.142857  0.000000      1.000000
 -0.285714  0.142857  0.000000      1.000000
 -0.142857  0.142857  0.000000      1.000000
  0.000000  0.285714  0.000000      1.000000
  0.142857  0.285714  0.000000      1.000000
  0.285714  0.285714  0.000000      1.000000
  0.428571  0.285714  0.000000      1.000000
 -0.428571  0.285714  0.000000      1.000000
 -0.285714  0.285714  0.000000      1.000000
 -0.142857  0.285714  0.000000      1.000000
  0.000000  0.428571  0.000000      1.000000
  0.142857  0.428571  0.000000      1.000000
  0.285714  0.428571  0.000000      1.000000
  0.428571  0.428571  0.000000      1.000000
 -0.428571  0.428571  0.000000      1.000000
 -0.285714  0.428571  0.000000      1.000000
 -0.142857  0.428571  0.000000      1.000000
  0.000000 -0.428571  0.000000      1.000000
  0.142857 -0.428571  0.000000      1.000000
  0.285714 -0.428571  0.000000      1.000000
  0.428571 -0.428571  0.000000      1.000000
 -0.428571 -0.428571  0.000000      1.000000
 -0.285714 -0.428571  0.000000      1.000000
 -0.142857 -0.428571  0.000000      1.000000
  0.000000 -0.285714  0.000000      1.000000
  0.142857 -0.285714  0.000000      1.000000
  0.285714 -0.285714  0.000000      1.000000
  0.428571 -0.285714  0.000000      1.000000
 -0.428571 -0.285714  0.000000      1.000000
 -0.285714 -0.285714  0.000000      1.000000
 -0.142857 -0.285714  0.000000      1.000000
  0.000000 -0.142857  0.000000      1.000000
  0.142857 -0.142857  0.000000      1.000000
  0.285714 -0.142857  0.000000      1.000000
  0.428571 -0.142857  0.000000      1.000000
 -0.428571 -0.142857  0.000000      1.000000
 -0.285714 -0.142857  0.000000      1.000000
 -0.142857 -0.142857  0.000000      1.000000
  0.000000  0.000000  0.200000      1.000000
  0.142857  0.000000  0.200000      1.000000
  0.285714  0.000000  0.200000      1.000000
  0.428571  0.000000  0.200000      1.000000
 -0.428571  0.000000  0.200000      1.000000
 -0.285714  0.000000  0.200000      1.000000
 -0.142857  0.000000  0.200000      1.000000
  0.000000  0.142857  0.200000      1.000000
  0.142857  0.142857  0.200000      1.000000
  0.285714  0.142857  0.200000      1.000000
  0.428571  0.142857  0.200000      1.000000
 -0.428571  0.142857  0.200000      1.000000
 -0.285714  0.142857  0.200000      1.000000
 -0.142857  0.142857  0.200000      1.000000
  0.000000  0.285714  0.200000      1.000000
  0.142857  0.285714  0.200000      1.000000
  0.285714  0.285714  0.200000      1.000000
  0.428571  0.285714  0.200000      1.000000
 -0.428571  0.285714  0.200000      1.000000
 -0.285714  0.285714  0.200000      1.000000
 -0.142857  0.285714  0.200000      1.000000
  0.000000  0.428571  0.200000      1.000000
  0.142857  0.428571  0.200000      1.000000
  0.285714  0.428571  0.200000      1.000000
  0.428571  0.428571  0.200000      1.000000
 -0.428571  0.428571  0.200000      1.000000
 -0.285714  0.428571  0.200000      1.000000
 -0.142857  0.428571  0.200000      1.000000
  0.000000 -0.428571  0.200000      1.000000
  0.142857 -0.428571  0.200000      1.000000
  0.285714 -0.428571  0.200000      1.000000
  0.428571 -0.428571  0.200000      1.000000
 -0.428571 -0.428571  0.200000      1.000000
 -0.285714 -0.428571  0.200000      1.000000
 -0.142857 -0.428571  0.200000      1.000000
  0.000000 -0.285714  0.200000      1.000000
  0.142857 -0.285714  0.200000      1.000000
  0.285714 -0.285714  0.200000      1.000000
  0.428571 -0.285714  0.200000      1.000000
 -0.428571 -0.285714  0.200000      1.000000
 -0.285714 -0.285714  0.200000      1.000000
 -0.142857 -0.285714  0.200000      1.000000
  0.000000 -0.142857  0.200000      1.000000
  0.142857 -0.142857  0.200000      1.000000
  0.285714 -0.142857  0.200000      1.000000
  0.428571 -0.142857  0.200000      1.000000
 -0.428571 -0.142857  0.200000      1.000000
 -0.285714 -0.142857  0.200000      1.000000
 -0.142857 -0.142857  0.200000      1.000000
  0.000000  0.000000  0.400000      1.000000
  0.142857  0.000000  0.400000      1.000000
  0.285714  0.000000  0.400000      1.000000
  0.428571  0.000000  0.400000      1.000000
 -0.428571  0.000000  0.400000      1.000000
 -0.285714  0.000000  0.400000      1.000000
 -0.142857  0.000000  0.400000      1.000000
  0.000000  0.142857  0.400000      1.000000
  0.142857  0.142857  0.400000      1.000000
  0.285714  0.142857  0.400000      1.000000
  0.428571  0.142857  0.400000      1.000000
 -0.428571  0.142857  0.400000      1.000000
 -0.285714  0.142857  0.400000      1.000000
 -0.142857  0.142857  0.400000      1.000000
  0.000000  0.285714  0.400000      1.000000
  0.142857  0.285714  0.400000      1.000000
  0.285714  0.285714  0.400000      1.000000
  0.428571  0.285714  0.400000      1.000000
 -0.428571  0.285714  0.400000      1.000000
 -0.285714  0.285714  0.400000      1.000000
 -0.142857  0.285714  0.400000      1.000000
  0.000000  0.428571  0.400000      1.000000
  0.142857  0.428571  0.400000      1.000000
  0.285714  0.428571  0.400000      1.000000
  0.428571  0.428571  0.400000      1.000000
 -0.428571  0.428571  0.400000      1.000000
 -0.285714  0.428571  0.400000      1.000000
 -0.142857  0.428571  0.400000      1.000000
  0.000000 -0.428571  0.400000      1.000000
  0.142857 -0.428571  0.400000      1.000000
  0.285714 -0.428571  0.400000      1.000000
  0.428571 -0.428571  0.400000      1.000000
 -0.428571 -0.428571  0.400000      1.000000
 -0.285714 -0.428571  0.400000      1.000000
 -0.142857 -0.428571  0.400000      1.000000
  0.000000 -0.285714  0.400000      1.000000
  0.142857 -0.285714  0.400000      1.000000
  0.285714 -0.285714  0.400000      1.000000
  0.428571 -0.285714  0.400000      1.000000
 -0.428571 -0.285714  0.400000      1.000000
 -0.285714 -0.285714  0.400000      1.000000
 -0.142857 -0.285714  0.400000      1.000000
  0.000000 -0.142857  0.400000      1.000000
  0.142857 -0.142857  0.400000      1.000000
  0.285714 -0.142857  0.400000      1.000000
  0.428571 -0.142857  0.400000      1.000000
 -0.428571 -0.142857  0.400000      1.000000
 -0.285714 -0.142857  0.400000      1.000000
 -0.142857 -0.142857  0.400000      1.000000
  0.000000  0.000000 -0.400000      1.000000
  0.142857  0.000000 -0.400000      1.000000
  0.285714  0.000000 -0.400000      1.000000
  0.428571  0.000000 -0.400000      1.000000
 -0.428571  0.000000 -0.400000      1.000000
 -0.285714  0.000000 -0.400000      1.000000
 -0.142857  0.000000 -0.400000      1.000000
  0.000000  0.142857 -0.400000      1.000000
  0.142857  0.142857 -0.400000      1.000000
  0.285714  0.142857 -0.400000      1.000000
  0.428571  0.142857 -0.400000      1.000000
 -0.428571  0.142857 -0.400000      1.000000
 -0.285714  0.142857 -0.400000      1.000000
 -0.142857  0.142857 -0.400000      1.000000
  0.000000  0.285714 -0.400000      1.000000
  0.142857  0.285714 -0.400000      1.000000
  0.285714  0.285714 -0.400000      1.000000
  0.428571  0.285714 -0.400000      1.000000
 -0.428571  0.285714 -0.400000      1.000000
 -0.285714  0.285714 -0.400000      1.000000
 -0.142857  0.285714 -0.400000      1.000000
  0.000000  0.428571 -0.400000      1.000000
  0.142857  0.428571 -0.400000      1.000000
  0.285714  0.428571 -0.400000      1.000000
  0.428571  0.428571 -0.400000      1.000000
 -0.428571  0.428571 -0.400000      1.000000
 -0.285714  0.428571 -0.400000      1.000000
 -0.142857  0.428571 -0.400000      1.000000
  0.000000 -0.428571 -0.400000      1.000000
  0.142857 -0.428571 -0.400000      1.000000
  0.285714 -0.428571 -0.400000      1.000000
  0.428571 -0.428571 -0.400000      1.000000
 -0.428571 -0.428571 -0.400000      1.000000
 -0.285714 -0.428571 -0.400000      1.000000
 -0.142857 -0.428571 -0.400000      1.000000
  0.000000 -0.285714 -0.400000      1.000000
  0.142857 -0.285714 -0.400000      1.000000
  0.285714 -0.285714 -0.400000      1.000000
  0.428571 -0.285714 -0.400000      1.000000
 -0.428571 -0.285714 -0.400000      1.000000
 -0.285714 -0.285714 -0.400000      1.000000
 -0.142857 -0.285714 -0.400000      1.000000
  0.000000 -0.142857 -0.400000      1.000000
  0.142857 -0.142857 -0.400000      1.000000
  0.285714 -0.142857 -0.400000      1.000000
  0.428571 -0.142857 -0.400000      1.000000
 -0.428571 -0.142857 -0.400000      1.000000
 -0.285714 -0.142857 -0.400000      1.000000
 -0.142857 -0.142857 -0.400000      1.000000
  0.000000  0.000000 -0.200000      1.000000
  0.142857  0.000000 -0.200000      1.000000
  0.285714  0.000000 -0.200000      1.000000
  0.428571  0.000000 -0.200000      1.000000
 -0.428571  0.000000 -0.200000      1.000000
 -0.285714  0.000000 -0.200000      1.000000
 -0.142857  0.000000 -0.200000      1.000000
  0.000000  0.142857 -0.200000      1.000000
  0.142857  0.142857 -0.200000      1.000000
  0.285714  0.142857 -0.200000      1.000000
  0.428571  0.142857 -0.200000      1.000000
 -0.428571  0.142857 -0.200000      1.000000
 -0.285714  0.142857 -0.200000      1.000000
 -0.142857  0.142857 -0.200000      1.000000
  0.000000  0.285714 -0.200000      1.000000
  0.142857  0.285714 -0.200000      1.000000
  0.285714  0.285714 -0.200000      1.000000
  0.428571  0.285714 -0.200000      1.000000
 -0.428571  0.285714 -0.200000      1.000000
 -0.285714  0.285714 -0.200000      1.000000
 -0.142857  0.285714 -0.200000      1.000000
  0.000000  0.428571 -0.200000      1.000000
  0.142857  0.428571 -0.200000      1.000000
  0.285714  0.428571 -0.200000      1.000000
  0.428571  0.428571 -0.200000      1.000000
 -0.428571  0.428571 -0.200000      1.000000
 -0.285714  0.428571 -0.200000      1.000000
 -0.142857  0.428571 -0.200000      1.000000
  0.000000 -0.428571 -0.200000      1.000000
  0.142857 -0.428571 -0.200000      1.000000
  0.285714 -0.428571 -0.200000      1.000000
  0.428571 -0.428571 -0.200000      1.000000
 -0.428571 -0.428571 -0.200000      1.000000
 -0.285714 -0.428571 -0.200000      1.000000
 -0.142857 -0.428571 -0.200000      1.000000
  0.000000 -0.285714 -0.200000      1.000000
  0.142857 -0.285714 -0.200000      1.000000
  0.285714 -0.285714 -0.200000      1.000000
  0.428571 -0.285714 -0.200000      1.000000
 -0.428571 -0.285714 -0.200000      1.000000
 -0.285714 -0.285714 -0.200000      1.000000
 -0.142857 -0.285714 -0.200000      1.000000
  0.000000 -0.142857 -0.200000      1.000000
  0.142857 -0.142857 -0.200000      1.000000
  0.285714 -0.142857 -0.200000      1.000000
  0.428571 -0.142857 -0.200000      1.000000
 -0.428571 -0.142857 -0.200000      1.000000
 -0.285714 -0.142857 -0.200000      1.000000
 -0.142857 -0.142857 -0.200000      1.000000
 
 Following cartesian coordinates:
            Coordinates               Weight
  0.000000  0.000000  0.000000      1.000000
  0.033222  0.000000  0.000000      1.000000
  0.066443  0.000000  0.000000      1.000000
  0.099665  0.000000  0.000000      1.000000
 -0.099665  0.000000  0.000000      1.000000
 -0.066443  0.000000  0.000000      1.000000
 -0.033222  0.000000  0.000000      1.000000
  0.000000  0.033222  0.000000      1.000000
  0.033222  0.033222  0.000000      1.000000
  0.066443  0.033222  0.000000      1.000000
  0.099665  0.033222  0.000000      1.000000
 -0.099665  0.033222  0.000000      1.000000
 -0.066443  0.033222  0.000000      1.000000
 -0.033222  0.033222  0.000000      1.000000
  0.000000  0.066443  0.000000      1.000000
  0.033222  0.066443  0.000000      1.000000
  0.066443  0.066443  0.000000      1.000000
  0.099665  0.066443  0.000000      1.000000
 -0.099665  0.066443  0.000000      1.000000
 -0.066443  0.066443  0.000000      1.000000
 -0.033222  0.066443  0.000000      1.000000
  0.000000  0.099665  0.000000      1.000000
  0.033222  0.099665  0.000000      1.000000
  0.066443  0.099665  0.000000      1.000000
  0.099665  0.099665  0.000000      1.000000
 -0.099665  0.099665  0.000000      1.000000
 -0.066443  0.099665  0.000000      1.000000
 -0.033222  0.099665  0.000000      1.000000
  0.000000 -0.099665  0.000000      1.000000
  0.033222 -0.099665  0.000000      1.000000
  0.066443 -0.099665  0.000000      1.000000
  0.099665 -0.099665  0.000000      1.000000
 -0.099665 -0.099665  0.000000      1.000000
 -0.066443 -0.099665  0.000000      1.000000
 -0.033222 -0.099665  0.000000      1.000000
  0.000000 -0.066443  0.000000      1.000000
  0.033222 -0.066443  0.000000      1.000000
  0.066443 -0.066443  0.000000      1.000000
  0.099665 -0.066443  0.000000      1.000000
 -0.099665 -0.066443  0.000000      1.000000
 -0.066443 -0.066443  0.000000      1.000000
 -0.033222 -0.066443  0.000000      1.000000
  0.000000 -0.033222  0.000000      1.000000
  0.033222 -0.033222  0.000000      1.000000
  0.066443 -0.033222  0.000000      1.000000
  0.099665 -0.033222  0.000000      1.000000
 -0.099665 -0.033222  0.000000      1.000000
 -0.066443 -0.033222  0.000000      1.000000
 -0.033222 -0.033222  0.000000      1.000000
  0.000000  0.000000  0.032542      1.000000
  0.033222  0.000000  0.032542      1.000000
  0.066443  0.000000  0.032542      1.000000
  0.099665  0.000000  0.032542      1.000000
 -0.099665  0.000000  0.032542      1.000000
 -0.066443  0.000000  0.032542      1.000000
 -0.033222  0.000000  0.032542      1.000000
  0.000000  0.033222  0.032542      1.000000
  0.033222  0.033222  0.032542      1.000000
  0.066443  0.033222  0.032542      1.000000
  0.099665  0.033222  0.032542      1.000000
 -0.099665  0.033222  0.032542      1.000000
 -0.066443  0.033222  0.032542      1.000000
 -0.033222  0.033222  0.032542      1.000000
  0.000000  0.066443  0.032542      1.000000
  0.033222  0.066443  0.032542      1.000000
  0.066443  0.066443  0.032542      1.000000
  0.099665  0.066443  0.032542      1.000000
 -0.099665  0.066443  0.032542      1.000000
 -0.066443  0.066443  0.032542      1.000000
 -0.033222  0.066443  0.032542      1.000000
  0.000000  0.099665  0.032542      1.000000
  0.033222  0.099665  0.032542      1.000000
  0.066443  0.099665  0.032542      1.000000
  0.099665  0.099665  0.032542      1.000000
 -0.099665  0.099665  0.032542      1.000000
 -0.066443  0.099665  0.032542      1.000000
 -0.033222  0.099665  0.032542      1.000000
  0.000000 -0.099665  0.032542      1.000000
  0.033222 -0.099665  0.032542      1.000000
  0.066443 -0.099665  0.032542      1.000000
  0.099665 -0.099665  0.032542      1.000000
 -0.099665 -0.099665  0.032542      1.000000
 -0.066443 -0.099665  0.032542      1.000000
 -0.033222 -0.099665  0.032542      1.000000
  0.000000 -0.066443  0.032542      1.000000
  0.033222 -0.066443  0.032542      1.000000
  0.066443 -0.066443  0.032542      1.000000
  0.099665 -0.066443  0.032542      1.000000
 -0.099665 -0.066443  0.032542      1.000000
 -0.066443 -0.066443  0.032542      1.000000
 -0.033222 -0.066443  0.032542      1.000000
  0.000000 -0.033222  0.032542      1.000000
  0.033222 -0.033222  0.032542      1.000000
  0.066443 -0.033222  0.032542      1.000000
  0.099665 -0.033222  0.032542      1.000000
 -0.099665 -0.033222  0.032542      1.000000
 -0.066443 -0.033222  0.032542      1.000000
 -0.033222 -0.033222  0.032542      1.000000
  0.000000  0.000000  0.065084      1.000000
  0.033222  0.000000  0.065084      1.000000
  0.066443  0.000000  0.065084      1.000000
  0.099665  0.000000  0.065084      1.000000
 -0.099665  0.000000  0.065084      1.000000
 -0.066443  0.000000  0.065084      1.000000
 -0.033222  0.000000  0.065084      1.000000
  0.000000  0.033222  0.065084      1.000000
  0.033222  0.033222  0.065084      1.000000
  0.066443  0.033222  0.065084      1.000000
  0.099665  0.033222  0.065084      1.000000
 -0.099665  0.033222  0.065084      1.000000
 -0.066443  0.033222  0.065084      1.000000
 -0.033222  0.033222  0.065084      1.000000
  0.000000  0.066443  0.065084      1.000000
  0.033222  0.066443  0.065084      1.000000
  0.066443  0.066443  0.065084      1.000000
  0.099665  0.066443  0.065084      1.000000
 -0.099665  0.066443  0.065084      1.000000
 -0.066443  0.066443  0.065084      1.000000
 -0.033222  0.066443  0.065084      1.000000
  0.000000  0.099665  0.065084      1.000000
  0.033222  0.099665  0.065084      1.000000
  0.066443  0.099665  0.065084      1.000000
  0.099665  0.099665  0.065084      1.000000
 -0.099665  0.099665  0.065084      1.000000
 -0.066443  0.099665  0.065084      1.000000
 -0.033222  0.099665  0.065084      1.000000
  0.000000 -0.099665  0.065084      1.000000
  0.033222 -0.099665  0.065084      1.000000
  0.066443 -0.099665  0.065084      1.000000
  0.099665 -0.099665  0.065084      1.000000
 -0.099665 -0.099665  0.065084      1.000000
 -0.066443 -0.099665  0.065084      1.000000
 -0.033222 -0.099665  0.065084      1.000000
  0.000000 -0.066443  0.065084      1.000000
  0.033222 -0.066443  0.065084      1.000000
  0.066443 -0.066443  0.065084      1.000000
  0.099665 -0.066443  0.065084      1.000000
 -0.099665 -0.066443  0.065084      1.000000
 -0.066443 -0.066443  0.065084      1.000000
 -0.033222 -0.066443  0.065084      1.000000
  0.000000 -0.033222  0.065084      1.000000
  0.033222 -0.033222  0.065084      1.000000
  0.066443 -0.033222  0.065084      1.000000
  0.099665 -0.033222  0.065084      1.000000
 -0.099665 -0.033222  0.065084      1.000000
 -0.066443 -0.033222  0.065084      1.000000
 -0.033222 -0.033222  0.065084      1.000000
  0.000000  0.000000 -0.065084      1.000000
  0.033222  0.000000 -0.065084      1.000000
  0.066443  0.000000 -0.065084      1.000000
  0.099665  0.000000 -0.065084      1.000000
 -0.099665  0.000000 -0.065084      1.000000
 -0.066443  0.000000 -0.065084      1.000000
 -0.033222  0.000000 -0.065084      1.000000
  0.000000  0.033222 -0.065084      1.000000
  0.033222  0.033222 -0.065084      1.000000
  0.066443  0.033222 -0.065084      1.000000
  0.099665  0.033222 -0.065084      1.000000
 -0.099665  0.033222 -0.065084      1.000000
 -0.066443  0.033222 -0.065084      1.000000
 -0.033222  0.033222 -0.065084      1.000000
  0.000000  0.066443 -0.065084      1.000000
  0.033222  0.066443 -0.065084      1.000000
  0.066443  0.066443 -0.065084      1.000000
  0.099665  0.066443 -0.065084      1.000000
 -0.099665  0.066443 -0.065084      1.000000
 -0.066443  0.066443 -0.065084      1.000000
 -0.033222  0.066443 -0.065084      1.000000
  0.000000  0.099665 -0.065084      1.000000
  0.033222  0.099665 -0.065084      1.000000
  0.066443  0.099665 -0.065084      1.000000
  0.099665  0.099665 -0.065084      1.000000
 -0.099665  0.099665 -0.065084      1.000000
 -0.066443  0.099665 -0.065084      1.000000
 -0.033222  0.099665 -0.065084      1.000000
  0.000000 -0.099665 -0.065084      1.000000
  0.033222 -0.099665 -0.065084      1.000000
  0.066443 -0.099665 -0.065084      1.000000
  0.099665 -0.099665 -0.065084      1.000000
 -0.099665 -0.099665 -0.065084      1.000000
 -0.066443 -0.099665 -0.065084      1.000000
 -0.033222 -0.099665 -0.065084      1.000000
  0.000000 -0.066443 -0.065084      1.000000
  0.033222 -0.066443 -0.065084      1.000000
  0.066443 -0.066443 -0.065084      1.000000
  0.099665 -0.066443 -0.065084      1.000000
 -0.099665 -0.066443 -0.065084      1.000000
 -0.066443 -0.066443 -0.065084      1.000000
 -0.033222 -0.066443 -0.065084      1.000000
  0.000000 -0.033222 -0.065084      1.000000
  0.033222 -0.033222 -0.065084      1.000000
  0.066443 -0.033222 -0.065084      1.000000
  0.099665 -0.033222 -0.065084      1.000000
 -0.099665 -0.033222 -0.065084      1.000000
 -0.066443 -0.033222 -0.065084      1.000000
 -0.033222 -0.033222 -0.065084      1.000000
  0.000000  0.000000 -0.032542      1.000000
  0.033222  0.000000 -0.032542      1.000000
  0.066443  0.000000 -0.032542      1.000000
  0.099665  0.000000 -0.032542      1.000000
 -0.099665  0.000000 -0.032542      1.000000
 -0.066443  0.000000 -0.032542      1.000000
 -0.033222  0.000000 -0.032542      1.000000
  0.000000  0.033222 -0.032542      1.000000
  0.033222  0.033222 -0.032542      1.000000
  0.066443  0.033222 -0.032542      1.000000
  0.099665  0.033222 -0.032542      1.000000
 -0.099665  0.033222 -0.032542      1.000000
 -0.066443  0.033222 -0.032542      1.000000
 -0.033222  0.033222 -0.032542      1.000000
  0.000000  0.066443 -0.032542      1.000000
  0.033222  0.066443 -0.032542      1.000000
  0.066443  0.066443 -0.032542      1.000000
  0.099665  0.066443 -0.032542      1.000000
 -0.099665  0.066443 -0.032542      1.000000
 -0.066443  0.066443 -0.032542      1.000000
 -0.033222  0.066443 -0.032542      1.000000
  0.000000  0.099665 -0.032542      1.000000
  0.033222  0.099665 -0.032542      1.000000
  0.066443  0.099665 -0.032542      1.000000
  0.099665  0.099665 -0.032542      1.000000
 -0.099665  0.099665 -0.032542      1.000000
 -0.066443  0.099665 -0.032542      1.000000
 -0.033222  0.099665 -0.032542      1.000000
  0.000000 -0.099665 -0.032542      1.000000
  0.033222 -0.099665 -0.032542      1.000000
  0.066443 -0.099665 -0.032542      1.000000
  0.099665 -0.099665 -0.032542      1.000000
 -0.099665 -0.099665 -0.032542      1.000000
 -0.066443 -0.099665 -0.032542      1.000000
 -0.033222 -0.099665 -0.032542      1.000000
  0.000000 -0.066443 -0.032542      1.000000
  0.033222 -0.066443 -0.032542      1.000000
  0.066443 -0.066443 -0.032542      1.000000
  0.099665 -0.066443 -0.032542      1.000000
 -0.099665 -0.066443 -0.032542      1.000000
 -0.066443 -0.066443 -0.032542      1.000000
 -0.033222 -0.066443 -0.032542      1.000000
  0.000000 -0.033222 -0.032542      1.000000
  0.033222 -0.033222 -0.032542      1.000000
  0.066443 -0.033222 -0.032542      1.000000
  0.099665 -0.033222 -0.032542      1.000000
 -0.099665 -0.033222 -0.032542      1.000000
 -0.066443 -0.033222 -0.032542      1.000000
 -0.033222 -0.033222 -0.032542      1.000000
 
 
 Subroutine IBZKPT_HF returns following result:
 ==============================================
 
 Found    245 k-points in 1st BZ
 the following    245 k-points will be used (e.g. in the exchange kernel)
 Following reciprocal coordinates:   # in IRBZ
  0.000000  0.000000  0.000000    0.00408163   1 t-inv F
  0.142857  0.000000  0.000000    0.00408163   2 t-inv F
  0.285714  0.000000  0.000000    0.00408163   3 t-inv F
  0.428571  0.000000  0.000000    0.00408163   4 t-inv F
 -0.428571  0.000000  0.000000    0.00408163   5 t-inv F
 -0.285714  0.000000  0.000000    0.00408163   6 t-inv F
 -0.142857  0.000000  0.000000    0.00408163   7 t-inv F
  0.000000  0.142857  0.000000    0.00408163   8 t-inv F
  0.142857  0.142857  0.000000    0.00408163   9 t-inv F
  0.285714  0.142857  0.000000    0.00408163  10 t-inv F
  0.428571  0.142857  0.000000    0.00408163  11 t-inv F
 -0.428571  0.142857  0.000000    0.00408163  12 t-inv F
 -0.285714  0.142857  0.000000    0.00408163  13 t-inv F
 -0.142857  0.142857  0.000000    0.00408163  14 t-inv F
  0.000000  0.285714  0.000000    0.00408163  15 t-inv F
  0.142857  0.285714  0.000000    0.00408163  16 t-inv F
  0.285714  0.285714  0.000000    0.00408163  17 t-inv F
  0.428571  0.285714  0.000000    0.00408163  18 t-inv F
 -0.428571  0.285714  0.000000    0.00408163  19 t-inv F
 -0.285714  0.285714  0.000000    0.00408163  20 t-inv F
 -0.142857  0.285714  0.000000    0.00408163  21 t-inv F
  0.000000  0.428571  0.000000    0.00408163  22 t-inv F
  0.142857  0.428571  0.000000    0.00408163  23 t-inv F
  0.285714  0.428571  0.000000    0.00408163  24 t-inv F
  0.428571  0.428571  0.000000    0.00408163  25 t-inv F
 -0.428571  0.428571  0.000000    0.00408163  26 t-inv F
 -0.285714  0.428571  0.000000    0.00408163  27 t-inv F
 -0.142857  0.428571  0.000000    0.00408163  28 t-inv F
  0.000000 -0.428571  0.000000    0.00408163  29 t-inv F
  0.142857 -0.428571  0.000000    0.00408163  30 t-inv F
  0.285714 -0.428571  0.000000    0.00408163  31 t-inv F
  0.428571 -0.428571  0.000000    0.00408163  32 t-inv F
 -0.428571 -0.428571  0.000000    0.00408163  33 t-inv F
 -0.285714 -0.428571  0.000000    0.00408163  34 t-inv F
 -0.142857 -0.428571  0.000000    0.00408163  35 t-inv F
  0.000000 -0.285714  0.000000    0.00408163  36 t-inv F
  0.142857 -0.285714  0.000000    0.00408163  37 t-inv F
  0.285714 -0.285714  0.000000    0.00408163  38 t-inv F
  0.428571 -0.285714  0.000000    0.00408163  39 t-inv F
 -0.428571 -0.285714  0.000000    0.00408163  40 t-inv F
 -0.285714 -0.285714  0.000000    0.00408163  41 t-inv F
 -0.142857 -0.285714  0.000000    0.00408163  42 t-inv F
  0.000000 -0.142857  0.000000    0.00408163  43 t-inv F
  0.142857 -0.142857  0.000000    0.00408163  44 t-inv F
  0.285714 -0.142857  0.000000    0.00408163  45 t-inv F
  0.428571 -0.142857  0.000000    0.00408163  46 t-inv F
 -0.428571 -0.142857  0.000000    0.00408163  47 t-inv F
 -0.285714 -0.142857  0.000000    0.00408163  48 t-inv F
 -0.142857 -0.142857  0.000000    0.00408163  49 t-inv F
  0.000000  0.000000  0.200000    0.00408163  50 t-inv F
  0.142857  0.000000  0.200000    0.00408163  51 t-inv F
  0.285714  0.000000  0.200000    0.00408163  52 t-inv F
  0.428571  0.000000  0.200000    0.00408163  53 t-inv F
 -0.428571  0.000000  0.200000    0.00408163  54 t-inv F
 -0.285714  0.000000  0.200000    0.00408163  55 t-inv F
 -0.142857  0.000000  0.200000    0.00408163  56 t-inv F
  0.000000  0.142857  0.200000    0.00408163  57 t-inv F
  0.142857  0.142857  0.200000    0.00408163  58 t-inv F
  0.285714  0.142857  0.200000    0.00408163  59 t-inv F
  0.428571  0.142857  0.200000    0.00408163  60 t-inv F
 -0.428571  0.142857  0.200000    0.00408163  61 t-inv F
 -0.285714  0.142857  0.200000    0.00408163  62 t-inv F
 -0.142857  0.142857  0.200000    0.00408163  63 t-inv F
  0.000000  0.285714  0.200000    0.00408163  64 t-inv F
  0.142857  0.285714  0.200000    0.00408163  65 t-inv F
  0.285714  0.285714  0.200000    0.00408163  66 t-inv F
  0.428571  0.285714  0.200000    0.00408163  67 t-inv F
 -0.428571  0.285714  0.200000    0.00408163  68 t-inv F
 -0.285714  0.285714  0.200000    0.00408163  69 t-inv F
 -0.142857  0.285714  0.200000    0.00408163  70 t-inv F
  0.000000  0.428571  0.200000    0.00408163  71 t-inv F
  0.142857  0.428571  0.200000    0.00408163  72 t-inv F
  0.285714  0.428571  0.200000    0.00408163  73 t-inv F
  0.428571  0.428571  0.200000    0.00408163  74 t-inv F
 -0.428571  0.428571  0.200000    0.00408163  75 t-inv F
 -0.285714  0.428571  0.200000    0.00408163  76 t-inv F
 -0.142857  0.428571  0.200000    0.00408163  77 t-inv F
  0.000000 -0.428571  0.200000    0.00408163  78 t-inv F
  0.142857 -0.428571  0.200000    0.00408163  79 t-inv F
  0.285714 -0.428571  0.200000    0.00408163  80 t-inv F
  0.428571 -0.428571  0.200000    0.00408163  81 t-inv F
 -0.428571 -0.428571  0.200000    0.00408163  82 t-inv F
 -0.285714 -0.428571  0.200000    0.00408163  83 t-inv F
 -0.142857 -0.428571  0.200000    0.00408163  84 t-inv F
  0.000000 -0.285714  0.200000    0.00408163  85 t-inv F
  0.142857 -0.285714  0.200000    0.00408163  86 t-inv F
  0.285714 -0.285714  0.200000    0.00408163  87 t-inv F
  0.428571 -0.285714  0.200000    0.00408163  88 t-inv F
 -0.428571 -0.285714  0.200000    0.00408163  89 t-inv F
 -0.285714 -0.285714  0.200000    0.00408163  90 t-inv F
 -0.142857 -0.285714  0.200000    0.00408163  91 t-inv F
  0.000000 -0.142857  0.200000    0.00408163  92 t-inv F
  0.142857 -0.142857  0.200000    0.00408163  93 t-inv F
  0.285714 -0.142857  0.200000    0.00408163  94 t-inv F
  0.428571 -0.142857  0.200000    0.00408163  95 t-inv F
 -0.428571 -0.142857  0.200000    0.00408163  96 t-inv F
 -0.285714 -0.142857  0.200000    0.00408163  97 t-inv F
 -0.142857 -0.142857  0.200000    0.00408163  98 t-inv F
  0.000000  0.000000  0.400000    0.00408163  99 t-inv F
  0.142857  0.000000  0.400000    0.00408163 100 t-inv F
  0.285714  0.000000  0.400000    0.00408163 101 t-inv F
  0.428571  0.000000  0.400000    0.00408163 102 t-inv F
 -0.428571  0.000000  0.400000    0.00408163 103 t-inv F
 -0.285714  0.000000  0.400000    0.00408163 104 t-inv F
 -0.142857  0.000000  0.400000    0.00408163 105 t-inv F
  0.000000  0.142857  0.400000    0.00408163 106 t-inv F
  0.142857  0.142857  0.400000    0.00408163 107 t-inv F
  0.285714  0.142857  0.400000    0.00408163 108 t-inv F
  0.428571  0.142857  0.400000    0.00408163 109 t-inv F
 -0.428571  0.142857  0.400000    0.00408163 110 t-inv F
 -0.285714  0.142857  0.400000    0.00408163 111 t-inv F
 -0.142857  0.142857  0.400000    0.00408163 112 t-inv F
  0.000000  0.285714  0.400000    0.00408163 113 t-inv F
  0.142857  0.285714  0.400000    0.00408163 114 t-inv F
  0.285714  0.285714  0.400000    0.00408163 115 t-inv F
  0.428571  0.285714  0.400000    0.00408163 116 t-inv F
 -0.428571  0.285714  0.400000    0.00408163 117 t-inv F
 -0.285714  0.285714  0.400000    0.00408163 118 t-inv F
 -0.142857  0.285714  0.400000    0.00408163 119 t-inv F
  0.000000  0.428571  0.400000    0.00408163 120 t-inv F
  0.142857  0.428571  0.400000    0.00408163 121 t-inv F
  0.285714  0.428571  0.400000    0.00408163 122 t-inv F
  0.428571  0.428571  0.400000    0.00408163 123 t-inv F
 -0.428571  0.428571  0.400000    0.00408163 124 t-inv F
 -0.285714  0.428571  0.400000    0.00408163 125 t-inv F
 -0.142857  0.428571  0.400000    0.00408163 126 t-inv F
  0.000000 -0.428571  0.400000    0.00408163 127 t-inv F
  0.142857 -0.428571  0.400000    0.00408163 128 t-inv F
  0.285714 -0.428571  0.400000    0.00408163 129 t-inv F
  0.428571 -0.428571  0.400000    0.00408163 130 t-inv F
 -0.428571 -0.428571  0.400000    0.00408163 131 t-inv F
 -0.285714 -0.428571  0.400000    0.00408163 132 t-inv F
 -0.142857 -0.428571  0.400000    0.00408163 133 t-inv F
  0.000000 -0.285714  0.400000    0.00408163 134 t-inv F
  0.142857 -0.285714  0.400000    0.00408163 135 t-inv F
  0.285714 -0.285714  0.400000    0.00408163 136 t-inv F
  0.428571 -0.285714  0.400000    0.00408163 137 t-inv F
 -0.428571 -0.285714  0.400000    0.00408163 138 t-inv F
 -0.285714 -0.285714  0.400000    0.00408163 139 t-inv F
 -0.142857 -0.285714  0.400000    0.00408163 140 t-inv F
  0.000000 -0.142857  0.400000    0.00408163 141 t-inv F
  0.142857 -0.142857  0.400000    0.00408163 142 t-inv F
  0.285714 -0.142857  0.400000    0.00408163 143 t-inv F
  0.428571 -0.142857  0.400000    0.00408163 144 t-inv F
 -0.428571 -0.142857  0.400000    0.00408163 145 t-inv F
 -0.285714 -0.142857  0.400000    0.00408163 146 t-inv F
 -0.142857 -0.142857  0.400000    0.00408163 147 t-inv F
  0.000000  0.000000 -0.400000    0.00408163 148 t-inv F
  0.142857  0.000000 -0.400000    0.00408163 149 t-inv F
  0.285714  0.000000 -0.400000    0.00408163 150 t-inv F
  0.428571  0.000000 -0.400000    0.00408163 151 t-inv F
 -0.428571  0.000000 -0.400000    0.00408163 152 t-inv F
 -0.285714  0.000000 -0.400000    0.00408163 153 t-inv F
 -0.142857  0.000000 -0.400000    0.00408163 154 t-inv F
  0.000000  0.142857 -0.400000    0.00408163 155 t-inv F
  0.142857  0.142857 -0.400000    0.00408163 156 t-inv F
  0.285714  0.142857 -0.400000    0.00408163 157 t-inv F
  0.428571  0.142857 -0.400000    0.00408163 158 t-inv F
 -0.428571  0.142857 -0.400000    0.00408163 159 t-inv F
 -0.285714  0.142857 -0.400000    0.00408163 160 t-inv F
 -0.142857  0.142857 -0.400000    0.00408163 161 t-inv F
  0.000000  0.285714 -0.400000    0.00408163 162 t-inv F
  0.142857  0.285714 -0.400000    0.00408163 163 t-inv F
  0.285714  0.285714 -0.400000    0.00408163 164 t-inv F
  0.428571  0.285714 -0.400000    0.00408163 165 t-inv F
 -0.428571  0.285714 -0.400000    0.00408163 166 t-inv F
 -0.285714  0.285714 -0.400000    0.00408163 167 t-inv F
 -0.142857  0.285714 -0.400000    0.00408163 168 t-inv F
  0.000000  0.428571 -0.400000    0.00408163 169 t-inv F
  0.142857  0.428571 -0.400000    0.00408163 170 t-inv F
  0.285714  0.428571 -0.400000    0.00408163 171 t-inv F
  0.428571  0.428571 -0.400000    0.00408163 172 t-inv F
 -0.428571  0.428571 -0.400000    0.00408163 173 t-inv F
 -0.285714  0.428571 -0.400000    0.00408163 174 t-inv F
 -0.142857  0.428571 -0.400000    0.00408163 175 t-inv F
  0.000000 -0.428571 -0.400000    0.00408163 176 t-inv F
  0.142857 -0.428571 -0.400000    0.00408163 177 t-inv F
  0.285714 -0.428571 -0.400000    0.00408163 178 t-inv F
  0.428571 -0.428571 -0.400000    0.00408163 179 t-inv F
 -0.428571 -0.428571 -0.400000    0.00408163 180 t-inv F
 -0.285714 -0.428571 -0.400000    0.00408163 181 t-inv F
 -0.142857 -0.428571 -0.400000    0.00408163 182 t-inv F
  0.000000 -0.285714 -0.400000    0.00408163 183 t-inv F
  0.142857 -0.285714 -0.400000    0.00408163 184 t-inv F
  0.285714 -0.285714 -0.400000    0.00408163 185 t-inv F
  0.428571 -0.285714 -0.400000    0.00408163 186 t-inv F
 -0.428571 -0.285714 -0.400000    0.00408163 187 t-inv F
 -0.285714 -0.285714 -0.400000    0.00408163 188 t-inv F
 -0.142857 -0.285714 -0.400000    0.00408163 189 t-inv F
  0.000000 -0.142857 -0.400000    0.00408163 190 t-inv F
  0.142857 -0.142857 -0.400000    0.00408163 191 t-inv F
  0.285714 -0.142857 -0.400000    0.00408163 192 t-inv F
  0.428571 -0.142857 -0.400000    0.00408163 193 t-inv F
 -0.428571 -0.142857 -0.400000    0.00408163 194 t-inv F
 -0.285714 -0.142857 -0.400000    0.00408163 195 t-inv F
 -0.142857 -0.142857 -0.400000    0.00408163 196 t-inv F
  0.000000  0.000000 -0.200000    0.00408163 197 t-inv F
  0.142857  0.000000 -0.200000    0.00408163 198 t-inv F
  0.285714  0.000000 -0.200000    0.00408163 199 t-inv F
  0.428571  0.000000 -0.200000    0.00408163 200 t-inv F
 -0.428571  0.000000 -0.200000    0.00408163 201 t-inv F
 -0.285714  0.000000 -0.200000    0.00408163 202 t-inv F
 -0.142857  0.000000 -0.200000    0.00408163 203 t-inv F
  0.000000  0.142857 -0.200000    0.00408163 204 t-inv F
  0.142857  0.142857 -0.200000    0.00408163 205 t-inv F
  0.285714  0.142857 -0.200000    0.00408163 206 t-inv F
  0.428571  0.142857 -0.200000    0.00408163 207 t-inv F
 -0.428571  0.142857 -0.200000    0.00408163 208 t-inv F
 -0.285714  0.142857 -0.200000    0.00408163 209 t-inv F
 -0.142857  0.142857 -0.200000    0.00408163 210 t-inv F
  0.000000  0.285714 -0.200000    0.00408163 211 t-inv F
  0.142857  0.285714 -0.200000    0.00408163 212 t-inv F
  0.285714  0.285714 -0.200000    0.00408163 213 t-inv F
  0.428571  0.285714 -0.200000    0.00408163 214 t-inv F
 -0.428571  0.285714 -0.200000    0.00408163 215 t-inv F
 -0.285714  0.285714 -0.200000    0.00408163 216 t-inv F
 -0.142857  0.285714 -0.200000    0.00408163 217 t-inv F
  0.000000  0.428571 -0.200000    0.00408163 218 t-inv F
  0.142857  0.428571 -0.200000    0.00408163 219 t-inv F
  0.285714  0.428571 -0.200000    0.00408163 220 t-inv F
  0.428571  0.428571 -0.200000    0.00408163 221 t-inv F
 -0.428571  0.428571 -0.200000    0.00408163 222 t-inv F
 -0.285714  0.428571 -0.200000    0.00408163 223 t-inv F
 -0.142857  0.428571 -0.200000    0.00408163 224 t-inv F
  0.000000 -0.428571 -0.200000    0.00408163 225 t-inv F
  0.142857 -0.428571 -0.200000    0.00408163 226 t-inv F
  0.285714 -0.428571 -0.200000    0.00408163 227 t-inv F
  0.428571 -0.428571 -0.200000    0.00408163 228 t-inv F
 -0.428571 -0.428571 -0.200000    0.00408163 229 t-inv F
 -0.285714 -0.428571 -0.200000    0.00408163 230 t-inv F
 -0.142857 -0.428571 -0.200000    0.00408163 231 t-inv F
  0.000000 -0.285714 -0.200000    0.00408163 232 t-inv F
  0.142857 -0.285714 -0.200000    0.00408163 233 t-inv F
  0.285714 -0.285714 -0.200000    0.00408163 234 t-inv F
  0.428571 -0.285714 -0.200000    0.00408163 235 t-inv F
 -0.428571 -0.285714 -0.200000    0.00408163 236 t-inv F
 -0.285714 -0.285714 -0.200000    0.00408163 237 t-inv F
 -0.142857 -0.285714 -0.200000    0.00408163 238 t-inv F
  0.000000 -0.142857 -0.200000    0.00408163 239 t-inv F
  0.142857 -0.142857 -0.200000    0.00408163 240 t-inv F
  0.285714 -0.142857 -0.200000    0.00408163 241 t-inv F
  0.428571 -0.142857 -0.200000    0.00408163 242 t-inv F
 -0.428571 -0.142857 -0.200000    0.00408163 243 t-inv F
 -0.285714 -0.142857 -0.200000    0.00408163 244 t-inv F
 -0.142857 -0.142857 -0.200000    0.00408163 245 t-inv F


--------------------------------------------------------------------------------------------------------




 Dimension of arrays:
   k-points           NKPTS =    245   k-points in BZ     NKDIM =    245   number of bands    NBANDS=     48
   number of dos      NEDOS =    301   number of ions     NIONS =      4
   non local maximal  LDIM  =      6   non local SUM 2l+1 LMDIM =     18
   total plane-waves  NPLWV =  49152
   max r-space proj   IRMAX =      1   max aug-charges    IRDMAX=  31281
   dimension x,y,z NGX =    32 NGY =   32 NGZ =   48
   dimension x,y,z NGXF=    64 NGYF=   64 NGZF=   96
   support grid    NGXF=    64 NGYF=   64 NGZF=   96
   ions per type =               2   1   1
   NGX,Y,Z   is equivalent  to a cutoff of  12.37, 12.37, 12.98 a.u.
   NGXF,Y,Z  is equivalent  to a cutoff of  24.74, 24.74, 25.97 a.u.

 SYSTEM =  Sn                                      
 POSCAR =  Ga2 Bi1 As1                             

 Startparameter for this run:
   NWRITE =      2    write-flag & timer
   PREC   = accura    normal or accurate (medium, high low for compatibility)
   ISTART =      1    job   : 0-new  1-cont  2-samecut
   ICHARG =      2    charge: 1-file 2-atom 10-const
   ISPIN  =      1    spin polarized calculation?
   LNONCOLLINEAR =      T non collinear calculations
   LSORBIT =      T    spin-orbit coupling
   INIWAV =      1    electr: 0-lowe 1-rand  2-diag
   LASPH  =      F    aspherical Exc in radial PAW
   METAGGA=      F    non-selfconsistent MetaGGA calc.

 Electronic Relaxation 1
   ENCUT  =  500.0 eV  36.75 Ry    6.06 a.u.   7.84  7.84 11.21*2*pi/ulx,y,z
   ENINI  =  500.0     initial cutoff
   ENAUG  =  462.8 eV  augmentation charge cutoff
   NELM   =     60;   NELMIN=  2; NELMDL=  0     # of ELM steps 
   EDIFF  = 0.1E-06   stopping-criterion for ELM
   LREAL  =      F    real-space projection
   NLSPLINE    = F    spline interpolate recip. space projectors
   LCOMPAT=      F    compatible to vasp.4.4
   GGA_COMPAT  = T    GGA compatible to vasp.4.4-vasp.4.6
   LMAXPAW     = -100 max onsite density
   LMAXMIX     =    2 max onsite mixed and CHGCAR
   VOSKOWN=      0    Vosko Wilk Nusair interpolation
   ROPT   =    0.00000   0.00000   0.00000
 Ionic relaxation
   EDIFFG = -.1E-01   stopping-criterion for IOM
   NSW    =      0    number of steps for IOM
   NBLOCK =      1;   KBLOCK =      1    inner block; outer block 
   IBRION =     -1    ionic relax: 0-MD 1-quasi-New 2-CG
   NFREE  =      0    steps in history (QN), initial steepest desc. (CG)
   ISIF   =      2    stress and relaxation
   IWAVPR =     10    prediction:  0-non 1-charg 2-wave 3-comb
   ISYM   =      0    0-nonsym 1-usesym 2-fastsym
   LCORR  =      T    Harris-Foulkes like correction to forces

   POTIM  = 0.5000    time-step for ionic-motion
   TEIN   =    0.0    initial temperature
   TEBEG  =    0.0;   TEEND  =   0.0 temperature during run
   SMASS  =  -3.00    Nose mass-parameter (am)
   estimated Nose-frequenzy (Omega)   =  0.10E-29 period in steps =****** mass=  -0.423E-27a.u.
   SCALEE = 1.0000    scale energy and forces
   NPACO  =    256;   APACO  = 16.0  distance and # of slots for P.C.
   PSTRESS=    0.0 pullay stress

  Mass of Ions in am
   POMASS =  69.72208.98 74.92
  Ionic Valenz
   ZVAL   =   3.00 15.00  5.00
  Atomic Wigner-Seitz radii
   RWIGS  =  -1.00 -1.00 -1.00
  virtual crystal weights 
   VCA    =   1.00  1.00  1.00
   NELECT =      26.0000    total number of electrons
   NUPDOWN=      -1.0000    fix difference up-down

 DOS related values:
   EMIN   =  10.00;   EMAX   =-10.00  energy-range for DOS
   EFERMI =   0.00
   ISMEAR =     0;   SIGMA  =   0.05  broadening in eV -4-tet -1-fermi 0-gaus

 Electronic relaxation 2 (details)
   IALGO  =     38    algorithm
   LDIAG  =      T    sub-space diagonalisation (order eigenvalues)
   LSUBROT=      F    optimize rotation matrix (better conditioning)
   TURBO    =      0    0=normal 1=particle mesh
   IRESTART =      0    0=no restart 2=restart with 2 vectors
   NREBOOT  =      0    no. of reboots
   NMIN     =      0    reboot dimension
   EREF     =   0.00    reference energy to select bands
   IMIX   =      4    mixing-type and parameters
     AMIX     =   0.40;   BMIX     =  1.00
     AMIX_MAG =   1.60;   BMIX_MAG =  1.00
     AMIN     =   0.10
     WC   =   100.;   INIMIX=   1;  MIXPRE=   1;  MAXMIX= -45

 Intra band minimization:
   WEIMIN = 0.0000     energy-eigenvalue tresh-hold
   EBREAK =  0.52E-09  absolut break condition
   DEPER  =   0.30     relativ break condition  

   TIME   =   0.40     timestep for ELM

  volume/ion in A,a.u.               =      28.41       191.73
  Fermi-wavevector in a.u.,A,eV,Ry     =   1.001267  1.892120 13.640326  1.002536
  Thomas-Fermi vector in A             =   2.133678
 
 Write flags
   LWAVE        =      F    write WAVECAR
   LDOWNSAMPLE  =      F    k-point downsampling of WAVECAR
   LCHARG       =      F    write CHGCAR
   LVTOT        =      F    write LOCPOT, total local potential
   LVHAR        =      F    write LOCPOT, Hartree potential only
   LELF         =      F    write electronic localiz. function (ELF)
   LORBIT       =      0    0 simple, 1 ext, 2 COOP (PROOUT), +10 PAW based schemes


 Dipole corrections
   LMONO  =      F    monopole corrections only (constant potential shift)
   LDIPOL =      F    correct potential (dipole corrections)
   IDIPOL =      0    1-x, 2-y, 3-z, 4-all directions 
   EPSILON=  1.0000000 bulk dielectric constant

 Exchange correlation treatment:
   GGA     =    PE    GGA type
   LEXCH   =     8    internal setting for exchange type
   VOSKOWN=      0    Vosko Wilk Nusair interpolation
   LHFCALC =     F    Hartree Fock is set to
   LHFONE  =     F    Hartree Fock one center treatment
   AEXX    =    0.0000 exact exchange contribution

 Linear response parameters
   LEPSILON=     F    determine dielectric tensor
   LRPA    =     F    only Hartree local field effects (RPA)
   LNABLA  =     F    use nabla operator in PAW spheres
   LVEL    =     F    velocity operator in full k-point grid
   LINTERFAST=   F  fast interpolation
   KINTER  =     0    interpolate to denser k-point grid
   CSHIFT  =0.1000    complex shift for real part using Kramers Kronig
   OMEGAMAX=  -1.0    maximum frequency
   DEG_THRESHOLD= 0.2000000E-02 threshold for treating states as degnerate
   RTIME   =   -0.100 relaxation time in fs
  (WPLASMAI=    0.000 imaginary part of plasma frequency in eV, 0.658/RTIME)
   DFIELD  = 0.0000000 0.0000000 0.0000000 field for delta impulse in time
 
 Orbital magnetization related:
   ORBITALMAG=     F  switch on orbital magnetization
   LCHIMAG   =     F  perturbation theory with respect to B field
   DQ        =  0.001000  dq finite difference perturbation B field
   LLRAUG    =     F  two centre corrections for induced B field



--------------------------------------------------------------------------------------------------------


 Static calculation
 charge density and potential will be updated during run
 non collinear spin polarized calculation
 Variant of blocked Davidson
 Davidson routine will perform the subspace rotation
 perform sub-space diagonalisation
    after iterative eigenvector-optimisation
 modified Broyden-mixing scheme, WC =      100.0
 initial mixing is a Kerker type mixing with AMIX =  0.4000 and BMIX =      1.0000
 Hartree-type preconditioning will be used
 using additional bands           35
 reciprocal scheme for non local part
 use partial core corrections
 calculate Harris-corrections to forces 
   (improved forces if not selfconsistent)
 use gradient corrections 
 use of overlap-Matrix (Vanderbilt PP)
 Gauss-broadening in eV      SIGMA  =   0.05


--------------------------------------------------------------------------------------------------------


  energy-cutoff  :      500.00
  volume of cell :      113.64
      direct lattice vectors                 reciprocal lattice vectors
     4.300140858  0.000000000  0.000000000     0.232550522  0.000000000  0.000000000
     0.000000000  4.300140858  0.000000000     0.000000000  0.232550522  0.000000000
     0.000000000  0.000000000  6.145861149     0.000000000  0.000000000  0.162711128

  length of vectors
     4.300140858  4.300140858  6.145861149     0.232550522  0.232550522  0.162711128


 
 old parameters found on file WAVECAR:
  energy-cutoff  :      500.00
  volume of cell :      113.64
      direct lattice vectors                 reciprocal lattice vectors
     4.300140858  0.000000000  0.000000000     0.232550522  0.000000000  0.000000000
     0.000000000  4.300140858  0.000000000     0.000000000  0.232550522  0.000000000
     0.000000000  0.000000000  6.145861149     0.000000000  0.000000000  0.162711128

  length of vectors

 
 k-points in units of 2pi/SCALE and weight: MP                                      
   0.00000000  0.00000000  0.00000000       0.004
   0.03322150  0.00000000  0.00000000       0.004
   0.06644301  0.00000000  0.00000000       0.004
   0.09966451  0.00000000  0.00000000       0.004
  -0.09966451  0.00000000  0.00000000       0.004
  -0.06644301  0.00000000  0.00000000       0.004
  -0.03322150  0.00000000  0.00000000       0.004
   0.00000000  0.03322150  0.00000000       0.004
   0.03322150  0.03322150  0.00000000       0.004
   0.06644301  0.03322150  0.00000000       0.004
   0.09966451  0.03322150  0.00000000       0.004
  -0.09966451  0.03322150  0.00000000       0.004
  -0.06644301  0.03322150  0.00000000       0.004
  -0.03322150  0.03322150  0.00000000       0.004
   0.00000000  0.06644301  0.00000000       0.004
   0.03322150  0.06644301  0.00000000       0.004
   0.06644301  0.06644301  0.00000000       0.004
   0.09966451  0.06644301  0.00000000       0.004
  -0.09966451  0.06644301  0.00000000       0.004
  -0.06644301  0.06644301  0.00000000       0.004
  -0.03322150  0.06644301  0.00000000       0.004
   0.00000000  0.09966451  0.00000000       0.004
   0.03322150  0.09966451  0.00000000       0.004
   0.06644301  0.09966451  0.00000000       0.004
   0.09966451  0.09966451  0.00000000       0.004
  -0.09966451  0.09966451  0.00000000       0.004
  -0.06644301  0.09966451  0.00000000       0.004
  -0.03322150  0.09966451  0.00000000       0.004
   0.00000000 -0.09966451  0.00000000       0.004
   0.03322150 -0.09966451  0.00000000       0.004
   0.06644301 -0.09966451  0.00000000       0.004
   0.09966451 -0.09966451  0.00000000       0.004
  -0.09966451 -0.09966451  0.00000000       0.004
  -0.06644301 -0.09966451  0.00000000       0.004
  -0.03322150 -0.09966451  0.00000000       0.004
   0.00000000 -0.06644301  0.00000000       0.004
   0.03322150 -0.06644301  0.00000000       0.004
   0.06644301 -0.06644301  0.00000000       0.004
   0.09966451 -0.06644301  0.00000000       0.004
  -0.09966451 -0.06644301  0.00000000       0.004
  -0.06644301 -0.06644301  0.00000000       0.004
  -0.03322150 -0.06644301  0.00000000       0.004
   0.00000000 -0.03322150  0.00000000       0.004
   0.03322150 -0.03322150  0.00000000       0.004
   0.06644301 -0.03322150  0.00000000       0.004
   0.09966451 -0.03322150  0.00000000       0.004
  -0.09966451 -0.03322150  0.00000000       0.004
  -0.06644301 -0.03322150  0.00000000       0.004
  -0.03322150 -0.03322150  0.00000000       0.004
   0.00000000  0.00000000  0.03254223       0.004
   0.03322150  0.00000000  0.03254223       0.004
   0.06644301  0.00000000  0.03254223       0.004
   0.09966451  0.00000000  0.03254223       0.004
  -0.09966451  0.00000000  0.03254223       0.004
  -0.06644301  0.00000000  0.03254223       0.004
  -0.03322150  0.00000000  0.03254223       0.004
   0.00000000  0.03322150  0.03254223       0.004
   0.03322150  0.03322150  0.03254223       0.004
   0.06644301  0.03322150  0.03254223       0.004
   0.09966451  0.03322150  0.03254223       0.004
  -0.09966451  0.03322150  0.03254223       0.004
  -0.06644301  0.03322150  0.03254223       0.004
  -0.03322150  0.03322150  0.03254223       0.004
   0.00000000  0.06644301  0.03254223       0.004
   0.03322150  0.06644301  0.03254223       0.004
   0.06644301  0.06644301  0.03254223       0.004
   0.09966451  0.06644301  0.03254223       0.004
  -0.09966451  0.06644301  0.03254223       0.004
  -0.06644301  0.06644301  0.03254223       0.004
  -0.03322150  0.06644301  0.03254223       0.004
   0.00000000  0.09966451  0.03254223       0.004
   0.03322150  0.09966451  0.03254223       0.004
   0.06644301  0.09966451  0.03254223       0.004
   0.09966451  0.09966451  0.03254223       0.004
  -0.09966451  0.09966451  0.03254223       0.004
  -0.06644301  0.09966451  0.03254223       0.004
  -0.03322150  0.09966451  0.03254223       0.004
   0.00000000 -0.09966451  0.03254223       0.004
   0.03322150 -0.09966451  0.03254223       0.004
   0.06644301 -0.09966451  0.03254223       0.004
   0.09966451 -0.09966451  0.03254223       0.004
  -0.09966451 -0.09966451  0.03254223       0.004
  -0.06644301 -0.09966451  0.03254223       0.004
  -0.03322150 -0.09966451  0.03254223       0.004
   0.00000000 -0.06644301  0.03254223       0.004
   0.03322150 -0.06644301  0.03254223       0.004
   0.06644301 -0.06644301  0.03254223       0.004
   0.09966451 -0.06644301  0.03254223       0.004
  -0.09966451 -0.06644301  0.03254223       0.004
  -0.06644301 -0.06644301  0.03254223       0.004
  -0.03322150 -0.06644301  0.03254223       0.004
   0.00000000 -0.03322150  0.03254223       0.004
   0.03322150 -0.03322150  0.03254223       0.004
   0.06644301 -0.03322150  0.03254223       0.004
   0.09966451 -0.03322150  0.03254223       0.004
  -0.09966451 -0.03322150  0.03254223       0.004
  -0.06644301 -0.03322150  0.03254223       0.004
  -0.03322150 -0.03322150  0.03254223       0.004
   0.00000000  0.00000000  0.06508445       0.004
   0.03322150  0.00000000  0.06508445       0.004
   0.06644301  0.00000000  0.06508445       0.004
   0.09966451  0.00000000  0.06508445       0.004
  -0.09966451  0.00000000  0.06508445       0.004
  -0.06644301  0.00000000  0.06508445       0.004
  -0.03322150  0.00000000  0.06508445       0.004
   0.00000000  0.03322150  0.06508445       0.004
   0.03322150  0.03322150  0.06508445       0.004
   0.06644301  0.03322150  0.06508445       0.004
   0.09966451  0.03322150  0.06508445       0.004
  -0.09966451  0.03322150  0.06508445       0.004
  -0.06644301  0.03322150  0.06508445       0.004
  -0.03322150  0.03322150  0.06508445       0.004
   0.00000000  0.06644301  0.06508445       0.004
   0.03322150  0.06644301  0.06508445       0.004
   0.06644301  0.06644301  0.06508445       0.004
   0.09966451  0.06644301  0.06508445       0.004
  -0.09966451  0.06644301  0.06508445       0.004
  -0.06644301  0.06644301  0.06508445       0.004
  -0.03322150  0.06644301  0.06508445       0.004
   0.00000000  0.09966451  0.06508445       0.004
   0.03322150  0.09966451  0.06508445       0.004
   0.06644301  0.09966451  0.06508445       0.004
   0.09966451  0.09966451  0.06508445       0.004
  -0.09966451  0.09966451  0.06508445       0.004
  -0.06644301  0.09966451  0.06508445       0.004
  -0.03322150  0.09966451  0.06508445       0.004
   0.00000000 -0.09966451  0.06508445       0.004
   0.03322150 -0.09966451  0.06508445       0.004
   0.06644301 -0.09966451  0.06508445       0.004
   0.09966451 -0.09966451  0.06508445       0.004
  -0.09966451 -0.09966451  0.06508445       0.004
  -0.06644301 -0.09966451  0.06508445       0.004
  -0.03322150 -0.09966451  0.06508445       0.004
   0.00000000 -0.06644301  0.06508445       0.004
   0.03322150 -0.06644301  0.06508445       0.004
   0.06644301 -0.06644301  0.06508445       0.004
   0.09966451 -0.06644301  0.06508445       0.004
  -0.09966451 -0.06644301  0.06508445       0.004
  -0.06644301 -0.06644301  0.06508445       0.004
  -0.03322150 -0.06644301  0.06508445       0.004
   0.00000000 -0.03322150  0.06508445       0.004
   0.03322150 -0.03322150  0.06508445       0.004
   0.06644301 -0.03322150  0.06508445       0.004
   0.09966451 -0.03322150  0.06508445       0.004
  -0.09966451 -0.03322150  0.06508445       0.004
  -0.06644301 -0.03322150  0.06508445       0.004
  -0.03322150 -0.03322150  0.06508445       0.004
   0.00000000  0.00000000 -0.06508445       0.004
   0.03322150  0.00000000 -0.06508445       0.004
   0.06644301  0.00000000 -0.06508445       0.004
   0.09966451  0.00000000 -0.06508445       0.004
  -0.09966451  0.00000000 -0.06508445       0.004
  -0.06644301  0.00000000 -0.06508445       0.004
  -0.03322150  0.00000000 -0.06508445       0.004
   0.00000000  0.03322150 -0.06508445       0.004
   0.03322150  0.03322150 -0.06508445       0.004
   0.06644301  0.03322150 -0.06508445       0.004
   0.09966451  0.03322150 -0.06508445       0.004
  -0.09966451  0.03322150 -0.06508445       0.004
  -0.06644301  0.03322150 -0.06508445       0.004
  -0.03322150  0.03322150 -0.06508445       0.004
   0.00000000  0.06644301 -0.06508445       0.004
   0.03322150  0.06644301 -0.06508445       0.004
   0.06644301  0.06644301 -0.06508445       0.004
   0.09966451  0.06644301 -0.06508445       0.004
  -0.09966451  0.06644301 -0.06508445       0.004
  -0.06644301  0.06644301 -0.06508445       0.004
  -0.03322150  0.06644301 -0.06508445       0.004
   0.00000000  0.09966451 -0.06508445       0.004
   0.03322150  0.09966451 -0.06508445       0.004
   0.06644301  0.09966451 -0.06508445       0.004
   0.09966451  0.09966451 -0.06508445       0.004
  -0.09966451  0.09966451 -0.06508445       0.004
  -0.06644301  0.09966451 -0.06508445       0.004
  -0.03322150  0.09966451 -0.06508445       0.004
   0.00000000 -0.09966451 -0.06508445       0.004
   0.03322150 -0.09966451 -0.06508445       0.004
   0.06644301 -0.09966451 -0.06508445       0.004
   0.09966451 -0.09966451 -0.06508445       0.004
  -0.09966451 -0.09966451 -0.06508445       0.004
  -0.06644301 -0.09966451 -0.06508445       0.004
  -0.03322150 -0.09966451 -0.06508445       0.004
   0.00000000 -0.06644301 -0.06508445       0.004
   0.03322150 -0.06644301 -0.06508445       0.004
   0.06644301 -0.06644301 -0.06508445       0.004
   0.09966451 -0.06644301 -0.06508445       0.004
  -0.09966451 -0.06644301 -0.06508445       0.004
  -0.06644301 -0.06644301 -0.06508445       0.004
  -0.03322150 -0.06644301 -0.06508445       0.004
   0.00000000 -0.03322150 -0.06508445       0.004
   0.03322150 -0.03322150 -0.06508445       0.004
   0.06644301 -0.03322150 -0.06508445       0.004
   0.09966451 -0.03322150 -0.06508445       0.004
  -0.09966451 -0.03322150 -0.06508445       0.004
  -0.06644301 -0.03322150 -0.06508445       0.004
  -0.03322150 -0.03322150 -0.06508445       0.004
   0.00000000  0.00000000 -0.03254223       0.004
   0.03322150  0.00000000 -0.03254223       0.004
   0.06644301  0.00000000 -0.03254223       0.004
   0.09966451  0.00000000 -0.03254223       0.004
  -0.09966451  0.00000000 -0.03254223       0.004
  -0.06644301  0.00000000 -0.03254223       0.004
  -0.03322150  0.00000000 -0.03254223       0.004
   0.00000000  0.03322150 -0.03254223       0.004
   0.03322150  0.03322150 -0.03254223       0.004
   0.06644301  0.03322150 -0.03254223       0.004
   0.09966451  0.03322150 -0.03254223       0.004
  -0.09966451  0.03322150 -0.03254223       0.004
  -0.06644301  0.03322150 -0.03254223       0.004
  -0.03322150  0.03322150 -0.03254223       0.004
   0.00000000  0.06644301 -0.03254223       0.004
   0.03322150  0.06644301 -0.03254223       0.004
   0.06644301  0.06644301 -0.03254223       0.004
   0.09966451  0.06644301 -0.03254223       0.004
  -0.09966451  0.06644301 -0.03254223       0.004
  -0.06644301  0.06644301 -0.03254223       0.004
  -0.03322150  0.06644301 -0.03254223       0.004
   0.00000000  0.09966451 -0.03254223       0.004
   0.03322150  0.09966451 -0.03254223       0.004
   0.06644301  0.09966451 -0.03254223       0.004
   0.09966451  0.09966451 -0.03254223       0.004
  -0.09966451  0.09966451 -0.03254223       0.004
  -0.06644301  0.09966451 -0.03254223       0.004
  -0.03322150  0.09966451 -0.03254223       0.004
   0.00000000 -0.09966451 -0.03254223       0.004
   0.03322150 -0.09966451 -0.03254223       0.004
   0.06644301 -0.09966451 -0.03254223       0.004
   0.09966451 -0.09966451 -0.03254223       0.004
  -0.09966451 -0.09966451 -0.03254223       0.004
  -0.06644301 -0.09966451 -0.03254223       0.004
  -0.03322150 -0.09966451 -0.03254223       0.004
   0.00000000 -0.06644301 -0.03254223       0.004
   0.03322150 -0.06644301 -0.03254223       0.004
   0.06644301 -0.06644301 -0.03254223       0.004
   0.09966451 -0.06644301 -0.03254223       0.004
  -0.09966451 -0.06644301 -0.03254223       0.004
  -0.06644301 -0.06644301 -0.03254223       0.004
  -0.03322150 -0.06644301 -0.03254223       0.004
   0.00000000 -0.03322150 -0.03254223       0.004
   0.03322150 -0.03322150 -0.03254223       0.004
   0.06644301 -0.03322150 -0.03254223       0.004
   0.09966451 -0.03322150 -0.03254223       0.004
  -0.09966451 -0.03322150 -0.03254223       0.004
  -0.06644301 -0.03322150 -0.03254223       0.004
  -0.03322150 -0.03322150 -0.03254223       0.004
 
 k-points in reciprocal lattice and weights: MP                                      
   0.00000000  0.00000000  0.00000000       0.004
   0.14285714  0.00000000  0.00000000       0.004
   0.28571429  0.00000000  0.00000000       0.004
   0.42857143  0.00000000  0.00000000       0.004
  -0.42857143  0.00000000  0.00000000       0.004
  -0.28571429  0.00000000  0.00000000       0.004
  -0.14285714  0.00000000  0.00000000       0.004
   0.00000000  0.14285714  0.00000000       0.004
   0.14285714  0.14285714  0.00000000       0.004
   0.28571429  0.14285714  0.00000000       0.004
   0.42857143  0.14285714  0.00000000       0.004
  -0.42857143  0.14285714  0.00000000       0.004
  -0.28571429  0.14285714  0.00000000       0.004
  -0.14285714  0.14285714  0.00000000       0.004
   0.00000000  0.28571429  0.00000000       0.004
   0.14285714  0.28571429  0.00000000       0.004
   0.28571429  0.28571429  0.00000000       0.004
   0.42857143  0.28571429  0.00000000       0.004
  -0.42857143  0.28571429  0.00000000       0.004
  -0.28571429  0.28571429  0.00000000       0.004
  -0.14285714  0.28571429  0.00000000       0.004
   0.00000000  0.42857143  0.00000000       0.004
   0.14285714  0.42857143  0.00000000       0.004
   0.28571429  0.42857143  0.00000000       0.004
   0.42857143  0.42857143  0.00000000       0.004
  -0.42857143  0.42857143  0.00000000       0.004
  -0.28571429  0.42857143  0.00000000       0.004
  -0.14285714  0.42857143  0.00000000       0.004
   0.00000000 -0.42857143  0.00000000       0.004
   0.14285714 -0.42857143  0.00000000       0.004
   0.28571429 -0.42857143  0.00000000       0.004
   0.42857143 -0.42857143  0.00000000       0.004
  -0.42857143 -0.42857143  0.00000000       0.004
  -0.28571429 -0.42857143  0.00000000       0.004
  -0.14285714 -0.42857143  0.00000000       0.004
   0.00000000 -0.28571429  0.00000000       0.004
   0.14285714 -0.28571429  0.00000000       0.004
   0.28571429 -0.28571429  0.00000000       0.004
   0.42857143 -0.28571429  0.00000000       0.004
  -0.42857143 -0.28571429  0.00000000       0.004
  -0.28571429 -0.28571429  0.00000000       0.004
  -0.14285714 -0.28571429  0.00000000       0.004
   0.00000000 -0.14285714  0.00000000       0.004
   0.14285714 -0.14285714  0.00000000       0.004
   0.28571429 -0.14285714  0.00000000       0.004
   0.42857143 -0.14285714  0.00000000       0.004
  -0.42857143 -0.14285714  0.00000000       0.004
  -0.28571429 -0.14285714  0.00000000       0.004
  -0.14285714 -0.14285714  0.00000000       0.004
   0.00000000  0.00000000  0.20000000       0.004
   0.14285714  0.00000000  0.20000000       0.004
   0.28571429  0.00000000  0.20000000       0.004
   0.42857143  0.00000000  0.20000000       0.004
  -0.42857143  0.00000000  0.20000000       0.004
  -0.28571429  0.00000000  0.20000000       0.004
  -0.14285714  0.00000000  0.20000000       0.004
   0.00000000  0.14285714  0.20000000       0.004
   0.14285714  0.14285714  0.20000000       0.004
   0.28571429  0.14285714  0.20000000       0.004
   0.42857143  0.14285714  0.20000000       0.004
  -0.42857143  0.14285714  0.20000000       0.004
  -0.28571429  0.14285714  0.20000000       0.004
  -0.14285714  0.14285714  0.20000000       0.004
   0.00000000  0.28571429  0.20000000       0.004
   0.14285714  0.28571429  0.20000000       0.004
   0.28571429  0.28571429  0.20000000       0.004
   0.42857143  0.28571429  0.20000000       0.004
  -0.42857143  0.28571429  0.20000000       0.004
  -0.28571429  0.28571429  0.20000000       0.004
  -0.14285714  0.28571429  0.20000000       0.004
   0.00000000  0.42857143  0.20000000       0.004
   0.14285714  0.42857143  0.20000000       0.004
   0.28571429  0.42857143  0.20000000       0.004
   0.42857143  0.42857143  0.20000000       0.004
  -0.42857143  0.42857143  0.20000000       0.004
  -0.28571429  0.42857143  0.20000000       0.004
  -0.14285714  0.42857143  0.20000000       0.004
   0.00000000 -0.42857143  0.20000000       0.004
   0.14285714 -0.42857143  0.20000000       0.004
   0.28571429 -0.42857143  0.20000000       0.004
   0.42857143 -0.42857143  0.20000000       0.004
  -0.42857143 -0.42857143  0.20000000       0.004
  -0.28571429 -0.42857143  0.20000000       0.004
  -0.14285714 -0.42857143  0.20000000       0.004
   0.00000000 -0.28571429  0.20000000       0.004
   0.14285714 -0.28571429  0.20000000       0.004
   0.28571429 -0.28571429  0.20000000       0.004
   0.42857143 -0.28571429  0.20000000       0.004
  -0.42857143 -0.28571429  0.20000000       0.004
  -0.28571429 -0.28571429  0.20000000       0.004
  -0.14285714 -0.28571429  0.20000000       0.004
   0.00000000 -0.14285714  0.20000000       0.004
   0.14285714 -0.14285714  0.20000000       0.004
   0.28571429 -0.14285714  0.20000000       0.004
   0.42857143 -0.14285714  0.20000000       0.004
  -0.42857143 -0.14285714  0.20000000       0.004
  -0.28571429 -0.14285714  0.20000000       0.004
[...]
 pseudopotential strength for first ion, spin component:           3
 -0.000   0.000  -0.000   0.000  -0.000   0.000   0.000   0.000   0.000  -0.000  -0.000   0.000   0.000   0.000   0.000  -0.000
 -0.000   0.000  -0.000   0.000  -0.000   0.000   0.000   0.000   0.000  -0.000  -0.000   0.000   0.000   0.000   0.000  -0.000
 -0.000   0.000  -0.000   0.000   0.000   0.000   0.000  -0.038  -0.000   0.000   0.000   0.000   0.000  -0.072  -0.000   0.000
  0.000   0.000   0.000   0.000   0.000   0.038  -0.000   0.000   0.038   0.000   0.000   0.072  -0.000   0.000   0.072   0.000
  0.000  -0.000   0.000  -0.000  -0.000   0.000  -0.038   0.000  -0.000  -0.000  -0.000   0.000  -0.072   0.000  -0.000  -0.000
 -0.000   0.000  -0.000   0.000   0.000   0.000   0.000  -0.072  -0.000   0.000   0.000   0.000   0.000  -0.138  -0.000   0.000
  0.000   0.000   0.000   0.000   0.000   0.072  -0.000   0.000   0.072   0.000   0.000   0.138  -0.000   0.000   0.138   0.000
  0.000  -0.000   0.000  -0.000  -0.000   0.000  -0.072   0.000  -0.000  -0.000  -0.000   0.000  -0.138   0.000  -0.000  -0.000
 -0.000   0.000  -0.000   0.000   0.000  -0.000   0.000  -0.000  -0.000   0.000   0.000  -0.000   0.000  -0.000  -0.000   0.000
  0.000  -0.000   0.000  -0.000   0.000   0.000  -0.000  -0.000   0.000  -0.000   0.000   0.000  -0.000  -0.000   0.000  -0.000
 -0.000  -0.000  -0.000  -0.000   0.000  -0.000   0.000   0.000  -0.000   0.000   0.000  -0.000   0.000   0.000  -0.000   0.000
  0.000   0.000   0.000   0.000   0.000  -0.000   0.000  -0.000  -0.000  -0.000   0.000  -0.000   0.000  -0.000  -0.000  -0.000
 -0.000  -0.000  -0.000  -0.000   0.000  -0.000  -0.000  -0.000   0.000  -0.000   0.000  -0.000  -0.000  -0.000   0.000  -0.000
 pseudopotential strength for first ion, spin component:           4
  5.697   0.000   6.817   0.000  -0.000   0.000  -0.004   0.000  -0.000   0.000  -0.000   0.000  -0.008   0.000  -0.000   0.000
  6.817   0.000   8.149   0.000  -0.000   0.000  -0.005   0.000  -0.000   0.000  -0.000   0.000  -0.010   0.000  -0.000   0.000
 -0.000   0.000  -0.000   0.000   1.277   0.000   0.000   0.000  -0.000  -0.038   2.132   0.000   0.000   0.000  -0.000  -0.072
 -0.004   0.000  -0.005   0.000   0.000   0.000   1.278   0.000   0.000   0.000   0.000   0.000   2.135   0.000   0.000   0.000
 -0.000   0.000  -0.000   0.000  -0.000   0.038   0.000   0.000   1.279   0.000  -0.000   0.072   0.000   0.000   2.136   0.000
 -0.000   0.000  -0.000   0.000   2.132   0.000   0.000   0.000  -0.000  -0.072   3.577   0.000   0.000   0.000  -0.000  -0.138
 -0.008   0.000  -0.010   0.000   0.000   0.000   2.135   0.000   0.000   0.000   0.000   0.000   3.582   0.000   0.000   0.000
 -0.000   0.000  -0.000   0.000  -0.000   0.072   0.000   0.000   2.136   0.000  -0.000   0.138   0.000   0.000   3.585   0.000
 -0.000   0.000  -0.000   0.000   0.000   0.000   0.000   0.000  -0.000   0.000   0.000   0.000   0.000   0.000  -0.000   0.000
  0.000   0.000   0.000   0.000  -0.003   0.000  -0.000   0.000   0.000   0.000  -0.005   0.000  -0.000   0.000   0.000   0.000
  0.001   0.000   0.001   0.000  -0.000   0.000  -0.001   0.000   0.000   0.000  -0.000   0.000  -0.001   0.000   0.000   0.000
  0.000   0.000   0.000   0.000   0.000   0.000  -0.000   0.000   0.002   0.000   0.000   0.000  -0.000   0.000   0.004   0.000
  0.004   0.000   0.005   0.000   0.000   0.000   0.002   0.000  -0.000   0.000   0.000   0.000   0.004   0.000  -0.000   0.000
 total augmentation occupancy for first ion, spin component:           1
  4.107  -1.519  -0.000  -0.015  -0.000   0.000  -0.004   0.000   0.000  -0.000  -0.000  -0.000  -0.030
 -1.519   0.764   0.000   0.058   0.000  -0.000  -0.005  -0.000  -0.000  -0.000   0.001   0.000   0.015
 -0.000   0.000   2.108  -0.000   0.000  -0.457   0.000  -0.000  -0.000  -0.213   0.000   0.000   0.000
 -0.015   0.058  -0.000   1.985  -0.000   0.000  -0.417   0.000   0.000  -0.000   0.030  -0.000   0.202
 -0.000   0.000   0.000  -0.000   1.869  -0.000   0.000  -0.376  -0.000   0.000   0.000   0.189  -0.000
  0.000  -0.000  -0.457   0.000  -0.000   0.107  -0.000   0.000   0.000   0.048  -0.000  -0.000  -0.000
 -0.004  -0.005   0.000  -0.417   0.000  -0.000   0.096  -0.000  -0.000   0.000  -0.006   0.000  -0.043
  0.000  -0.000  -0.000   0.000  -0.376   0.000  -0.000   0.085   0.000   0.000  -0.000  -0.039   0.000
  0.000  -0.000  -0.000   0.000  -0.000   0.000  -0.000   0.000   0.010   0.000   0.000  -0.000   0.000
 -0.000  -0.000  -0.213  -0.000   0.000   0.048   0.000   0.000   0.000   0.037  -0.000   0.000  -0.000
 -0.000   0.001   0.000   0.030   0.000  -0.000  -0.006  -0.000   0.000  -0.000   0.011  -0.000   0.004
 -0.000   0.000   0.000  -0.000   0.189  -0.000   0.000  -0.039  -0.000   0.000  -0.000   0.034  -0.000
 -0.030   0.015   0.000   0.202  -0.000  -0.000  -0.043   0.000   0.000  -0.000   0.004  -0.000   0.036
 total augmentation occupancy for first ion, spin component:           2
 -0.000   0.000   0.000   0.000   0.000  -0.000   0.000  -0.000  -0.000   0.000   0.000   0.000   0.000
  0.000  -0.000  -0.000  -0.000  -0.000   0.000   0.000   0.000   0.000  -0.000  -0.000  -0.000  -0.000
  0.000  -0.000   0.000   0.000  -0.000  -0.000  -0.000   0.000   0.000  -0.000  -0.000  -0.000  -0.000
  0.000  -0.000   0.000   0.000   0.000  -0.000  -0.000  -0.000   0.000  -0.000   0.000   0.000   0.000
  0.000  -0.000  -0.000   0.000   0.000   0.000  -0.000  -0.000   0.000   0.000   0.000   0.000   0.000
 -0.000   0.000  -0.000  -0.000   0.000   0.000   0.000  -0.000  -0.000   0.000   0.000   0.000   0.000
  0.000   0.000  -0.000  -0.000  -0.000   0.000   0.000   0.000  -0.000   0.000  -0.000  -0.000  -0.000
 -0.000   0.000   0.000  -0.000  -0.000  -0.000   0.000   0.000  -0.000  -0.000  -0.000  -0.000  -0.000
 -0.000   0.000   0.000   0.000   0.000  -0.000  -0.000  -0.000   0.000  -0.000   0.000   0.000   0.000
  0.000  -0.000  -0.000  -0.000   0.000   0.000   0.000  -0.000  -0.000   0.000   0.000  -0.000   0.000
  0.000  -0.000  -0.000   0.000   0.000   0.000  -0.000  -0.000   0.000   0.000   0.000   0.000   0.000
  0.000  -0.000  -0.000   0.000   0.000   0.000  -0.000  -0.000   0.000  -0.000   0.000   0.000   0.000
  0.000  -0.000  -0.000   0.000   0.000   0.000  -0.000  -0.000   0.000   0.000   0.000   0.000   0.000
 total augmentation occupancy for first ion, spin component:           3
 -0.000   0.000   0.000  -0.000   0.000  -0.000   0.000  -0.000  -0.000  -0.000   0.000   0.000   0.000
  0.000  -0.000  -0.000   0.000  -0.000   0.000  -0.000   0.000   0.000   0.000  -0.000  -0.000  -0.000
  0.000  -0.000   0.000  -0.000   0.000  -0.000   0.000   0.000   0.000  -0.000  -0.000   0.000  -0.000
 -0.000   0.000  -0.000   0.000   0.000   0.000  -0.000  -0.000  -0.000  -0.000   0.000   0.000   0.000
  0.000  -0.000   0.000   0.000   0.000   0.000  -0.000  -0.000  -0.000   0.000   0.000   0.000   0.000
 -0.000   0.000  -0.000   0.000   0.000   0.000  -0.000  -0.000  -0.000   0.000   0.000   0.000   0.000
  0.000  -0.000   0.000  -0.000  -0.000  -0.000   0.000   0.000   0.000   0.000  -0.000  -0.000  -0.000
 -0.000   0.000   0.000  -0.000  -0.000  -0.000   0.000   0.000   0.000   0.000  -0.000  -0.000  -0.000
 -0.000   0.000   0.000  -0.000  -0.000  -0.000   0.000   0.000   0.000   0.000   0.000  -0.000  -0.000
 -0.000   0.000  -0.000  -0.000   0.000   0.000   0.000   0.000   0.000   0.000  -0.000   0.000   0.000
  0.000  -0.000  -0.000   0.000   0.000   0.000  -0.000  -0.000   0.000  -0.000   0.000   0.000   0.000
  0.000  -0.000   0.000   0.000   0.000   0.000  -0.000  -0.000  -0.000   0.000   0.000   0.000   0.000
  0.000  -0.000  -0.000   0.000   0.000   0.000  -0.000  -0.000  -0.000   0.000   0.000   0.000   0.000
 total augmentation occupancy for first ion, spin component:           4
 -0.000   0.000   0.000   0.000  -0.000  -0.000  -0.000   0.000   0.000   0.000   0.000  -0.000   0.000
  0.000  -0.000  -0.000  -0.000   0.000   0.000   0.000  -0.000  -0.000   0.000  -0.000   0.000  -0.000
  0.000  -0.000   0.000  -0.000   0.000  -0.000   0.000  -0.000  -0.000  -0.000   0.000  -0.000   0.000
  0.000  -0.000  -0.000   0.000  -0.000   0.000  -0.000   0.000  -0.000   0.000   0.000  -0.000   0.000
 -0.000   0.000   0.000  -0.000   0.000  -0.000   0.000  -0.000   0.000  -0.000  -0.000   0.000  -0.000
 -0.000   0.000  -0.000   0.000  -0.000   0.000  -0.000   0.000   0.000   0.000  -0.000  -0.000  -0.000
 -0.000   0.000   0.000  -0.000   0.000  -0.000   0.000  -0.000   0.000  -0.000  -0.000   0.000  -0.000
  0.000  -0.000  -0.000   0.000  -0.000   0.000  -0.000   0.000  -0.000   0.000  -0.000  -0.000   0.000
  0.000  -0.000  -0.000  -0.000   0.000   0.000   0.000  -0.000  -0.000   0.000  -0.000   0.000  -0.000
  0.000   0.000  -0.000   0.000  -0.000   0.000  -0.000   0.000   0.000   0.000   0.000   0.000   0.000
  0.000  -0.000   0.000   0.000  -0.000  -0.000  -0.000  -0.000  -0.000   0.000   0.000  -0.000   0.000
 -0.000   0.000  -0.000  -0.000   0.000  -0.000   0.000  -0.000   0.000   0.000  -0.000   0.000  -0.000
  0.000  -0.000   0.000   0.000  -0.000  -0.000  -0.000   0.000  -0.000   0.000   0.000  -0.000   0.000


------------------------ aborting loop because EDIFF is reached ----------------------------------------


    CHARGE:  cpu time    1.0433: real time    1.8452
    FORLOC:  cpu time    0.0098: real time    0.0099
    FORNL :  cpu time    2.2124: real time    2.2157
    STRESS:  cpu time    9.2143: real time   13.5381
    FORCOR:  cpu time    0.0919: real time    0.1708
    FORHAR:  cpu time    0.0201: real time    0.0391
    MIXING:  cpu time    0.0195: real time    0.0349
    OFIELD:  cpu time    0.0001: real time    0.0001

  FORCE on cell =-STRESS in cart. coord.  units (eV):
  Direction    XX          YY          ZZ          XY          YZ          ZX
  --------------------------------------------------------------------------------------
  Alpha Z    64.20129    64.20129    64.20129
  Ewald    -439.74121  -439.74123  -560.43629     0.00000     0.00000    -0.00000
  Hartree   290.89500   290.89499   172.81696    -0.00000    -0.00000    -0.00000
  E(xc)    -113.06808  -113.06808  -113.02797     0.00000     0.00000     0.00000
  Local    -321.32208  -321.32205   -82.50286     0.00000     0.00000     0.00000
  n-local   155.67137   155.67137   155.87657    -0.00000     0.00000     0.00000
  augment   138.72757   138.72757   138.67476     0.00000     0.00000     0.00000
  Kinetic   224.94229   224.94229   224.70847     0.00000     0.00000     0.00000
  Fock        0.00000     0.00000     0.00000     0.00000     0.00000     0.00000
  -------------------------------------------------------------------------------------
  Total       0.30614     0.30614     0.31092     0.00000     0.00000     0.00000
  in kB       4.31606     4.31603     4.38341     0.00001     0.00003     0.00003
  external pressure =        4.34 kB  Pullay stress =        0.00 kB


 VOLUME and BASIS-vectors are now :
 -----------------------------------------------------------------------------
  energy-cutoff  :      500.00
  volume of cell :      113.64
      direct lattice vectors                 reciprocal lattice vectors
     4.300140858  0.000000000  0.000000000     0.232550522  0.000000000  0.000000000
     0.000000000  4.300140858  0.000000000     0.000000000  0.232550522  0.000000000
     0.000000000  0.000000000  6.145861149     0.000000000  0.000000000  0.162711128

  length of vectors
     4.300140858  4.300140858  6.145861149     0.232550522  0.232550522  0.162711128


 FORCES acting on ions
    electron-ion (+dipol)            ewald-force                    non-local-force                 convergence-correction
 -----------------------------------------------------------------------------------------------
   -.188E-05 -.933E-06 0.477E+02   0.261E-14 -.178E-15 -.473E+02   0.646E-06 0.214E-06 -.400E+00   0.129E-05 0.675E-06 0.665E-04
   0.932E-06 0.188E-05 -.477E+02   -.168E-14 -.547E-14 0.473E+02   -.213E-06 -.646E-06 0.400E+00   -.675E-06 -.129E-05 -.665E-04
   0.110E-04 -.111E-04 -.325E-05   -.341E-14 0.631E-14 0.425E-05   0.324E-05 -.326E-05 -.543E-06   -.138E-04 0.139E-04 -.611E-07
   -.128E-05 0.127E-05 -.285E-06   0.139E-14 0.780E-16 0.515E-06   0.219E-06 -.214E-06 0.150E-06   0.987E-06 -.983E-06 0.245E-08
 -----------------------------------------------------------------------------------------------
   0.880E-05 -.891E-05 0.110E-05   -.109E-14 0.740E-15 -.355E-14   0.389E-05 -.391E-05 -.103E-05   -.122E-04 0.123E-04 -.619E-07
 
 
 POSITION                                       TOTAL-FORCE (eV/Angst)
 -----------------------------------------------------------------------------------
      2.15007      0.00000      4.46027        -0.000000      0.000000     -0.068363
      0.00000      2.15007      1.68559        -0.000000      0.000000      0.068362
      0.00000      0.00000      0.00000         0.000000     -0.000000      0.000000
      2.15007      2.15007      3.07293        -0.000000      0.000000      0.000000
 -----------------------------------------------------------------------------------
    total drift:                                0.000000     -0.000000      0.000000


--------------------------------------------------------------------------------------------------------



  FREE ENERGIE OF THE ION-ELECTRON SYSTEM (eV)
  ---------------------------------------------------
  free  energy   TOTEN  =       -15.63281018 eV

  energy  without entropy=      -15.63143355  energy(sigma->0) =      -15.63212186
 


--------------------------------------------------------------------------------------------------------


    POTLOK:  cpu time    0.1050: real time    0.1872


--------------------------------------------------------------------------------------------------------


     LOOP+:  cpu time  866.9121: real time 1190.9208
    4ORBIT:  cpu time    0.0000: real time    0.0000

 Spin-Orbit-Coupling matrix elements

 Ion:    1  E_soc:     -0.0070628
 l=   1
     0.0000000    -0.0009863    -0.0011844
    -0.0009863     0.0000000    -0.0014139
    -0.0011844    -0.0014139     0.0000000
 l=   2
     0.0000000    -0.0000003     0.0000000     0.0000054     0.0000011
    -0.0000003     0.0000000    -0.0000056     0.0000165     0.0000069
     0.0000000    -0.0000056     0.0000000     0.0000146     0.0000000
     0.0000054     0.0000165     0.0000146     0.0000000     0.0000146
     0.0000011     0.0000069     0.0000000     0.0000146     0.0000000
 l=   3
     0.0000000     0.0000000     0.0000000     0.0000000     0.0000000     0.0000000     0.0000000
     0.0000000     0.0000000     0.0000000     0.0000000     0.0000000     0.0000000     0.0000000
     0.0000000     0.0000000     0.0000000     0.0000000     0.0000000     0.0000000     0.0000000
     0.0000000     0.0000000     0.0000000     0.0000000     0.0000000     0.0000000     0.0000000
     0.0000000     0.0000000     0.0000000     0.0000000     0.0000000     0.0000000     0.0000000
     0.0000000     0.0000000     0.0000000     0.0000000     0.0000000     0.0000000     0.0000000
     0.0000000     0.0000000     0.0000000     0.0000000     0.0000000     0.0000000     0.0000000

 Ion:    2  E_soc:     -0.0070628
 l=   1
     0.0000000    -0.0014139    -0.0011844
    -0.0014139     0.0000000    -0.0009863
    -0.0011844    -0.0009863     0.0000000
 l=   2
     0.0000000     0.0000054     0.0000000    -0.0000003     0.0000011
     0.0000054     0.0000000     0.0000146     0.0000165     0.0000146
     0.0000000     0.0000146     0.0000000    -0.0000056     0.0000000
    -0.0000003     0.0000165    -0.0000056     0.0000000     0.0000069
     0.0000011     0.0000146     0.0000000     0.0000069     0.0000000
 l=   3
     0.0000000     0.0000000     0.0000000     0.0000000     0.0000000     0.0000000     0.0000000
     0.0000000     0.0000000     0.0000000     0.0000000     0.0000000     0.0000000     0.0000000
     0.0000000     0.0000000     0.0000000     0.0000000     0.0000000     0.0000000     0.0000000
     0.0000000     0.0000000     0.0000000     0.0000000     0.0000000     0.0000000     0.0000000
     0.0000000     0.0000000     0.0000000     0.0000000     0.0000000     0.0000000     0.0000000
     0.0000000     0.0000000     0.0000000     0.0000000     0.0000000     0.0000000     0.0000000
     0.0000000     0.0000000     0.0000000     0.0000000     0.0000000     0.0000000     0.0000000

 Ion:    3  E_soc:     -1.5801009
 l=   1
     0.0000000    -0.1936662    -0.2012036
    -0.1936662     0.0000000    -0.1936662
    -0.2012036    -0.1936662     0.0000000
 l=   2
     0.0000000    -0.0133440     0.0000000    -0.0133440    -0.0533981
    -0.0133440     0.0000000    -0.0401039    -0.0138501    -0.0136853
     0.0000000    -0.0401039     0.0000000    -0.0401039     0.0000000
    -0.0133440    -0.0138501    -0.0401039     0.0000000    -0.0136853
    -0.0533981    -0.0136853     0.0000000    -0.0136853     0.0000000
 l=   3
     0.0000000     0.0000000     0.0000000     0.0000000     0.0000000     0.0000000     0.0000000
     0.0000000     0.0000000     0.0000000     0.0000000     0.0000000     0.0000000     0.0000000
     0.0000000     0.0000000     0.0000000     0.0000000     0.0000000     0.0000000     0.0000000
     0.0000000     0.0000000     0.0000000     0.0000000     0.0000000     0.0000000     0.0000000
     0.0000000     0.0000000     0.0000000     0.0000000     0.0000000     0.0000000     0.0000000
     0.0000000     0.0000000     0.0000000     0.0000000     0.0000000     0.0000000     0.0000000
     0.0000000     0.0000000     0.0000000     0.0000000     0.0000000     0.0000000     0.0000000

 Ion:    4  E_soc:     -0.0295116
 l=   1
     0.0000000    -0.0048925    -0.0049390
    -0.0048925     0.0000000    -0.0048925
    -0.0049390    -0.0048925     0.0000000
 l=   2
     0.0000000    -0.0000025     0.0000000    -0.0000025    -0.0000092
    -0.0000025     0.0000000    -0.0000076    -0.0000004    -0.0000011
     0.0000000    -0.0000076     0.0000000    -0.0000076     0.0000000
    -0.0000025    -0.0000004    -0.0000076     0.0000000    -0.0000011
    -0.0000092    -0.0000011     0.0000000    -0.0000011     0.0000000
 l=   3
     0.0000000     0.0000000     0.0000000     0.0000000     0.0000000     0.0000000     0.0000000
     0.0000000     0.0000000     0.0000000     0.0000000     0.0000000     0.0000000     0.0000000
     0.0000000     0.0000000     0.0000000     0.0000000     0.0000000     0.0000000     0.0000000
     0.0000000     0.0000000     0.0000000     0.0000000     0.0000000     0.0000000     0.0000000
     0.0000000     0.0000000     0.0000000     0.0000000     0.0000000     0.0000000     0.0000000
     0.0000000     0.0000000     0.0000000     0.0000000     0.0000000     0.0000000     0.0000000
     0.0000000     0.0000000     0.0000000     0.0000000     0.0000000     0.0000000     0.0000000

 total amount of memory used by VASP MPI-rank0   397075. kBytes
=======================================================================

   base      :      30000. kBytes
   nonl-proj :     307545. kBytes
   fftplans  :       1609. kBytes
   grid      :      11010. kBytes
   one-center:        248. kBytes
   wavefun   :      46663. kBytes
 
  
  
 General timing and accounting informations for this job:
 ========================================================
  
                  Total CPU time used (sec):      877.843
                            User time (sec):      864.218
                          System time (sec):       13.625
                         Elapsed time (sec):     1216.804
  
                   Maximum memory used (kb):      583204.
                   Average memory used (kb):           0.
  
                          Minor page faults:       117448
                          Major page faults:            0
                 Voluntary context switches:          871
