<?xml version="1.0" encoding="ISO-8859-1"?>
<modeling>
 <generator>
  <i name="program" type="string">vasp </i>
  <i name="version" type="string">5.4.4.18Apr17-6-g9f103f2a35  </i>
  <i name="subversion" type="string">(build Dec 22 2021 20:15:33) complex            parallel </i>
  <i name="platform" type="string">LinuxIFC </i>
  <i name="date" type="string">2022 01 22 </i>
  <i name="time" type="string">18:05:51 </i>
 </generator>
 <incar>
  <i type="string" name="SYSTEM"> Sn</i>
  <i type="int" name="ISTART">     1</i>
  <i type="string" name="PREC">accurate</i>
  <i type="logical" name="LSORBIT"> T  </i>
  <v name="SAXIS">      0.00000000      0.00000000      1.00000000</v>
  <i type="int" name="ISPIN">     2</i>
  <i type="int" name="ICHARG">     2</i>
  <i name="EDIFF">      0.00000010</i>
  <i name="EDIFFG">     -0.01000000</i>
  <i type="int" name="ISYM">     0</i>
  <i name="ENCUT">    500.00000000</i>
  <i type="int" name="NBANDS">    48</i>
  <i type="int" name="ISMEAR">     0</i>
  <i name="SIGMA">      0.05000000</i>
  <i type="logical" name="LWAVE"> F  </i>
  <i type="logical" name="LCHARG"> F  </i>
  <v type="int" name="KPOINT_BSE">    -1     0     0     0</v>
  <i type="string" name="GGA"> PE</i>
  <i type="logical" name="LWANNIER90"> T  </i>
 </incar>
 <structure name="primitive_cell" >
  <crystal>
   <varray name="basis" >
    <v>       4.30014086       0.00000000       0.00000000 </v>
    <v>       0.00000000       4.30014086       0.00000000 </v>
    <v>       0.00000000       0.00000000       6.14586115 </v>
   </varray>
   <i name="volume">    113.64441771 </i>
   <varray name="rec_basis" >
    <v>       0.23255052       0.00000000       0.00000000 </v>
    <v>       0.00000000       0.23255052       0.00000000 </v>
    <v>       0.00000000       0.00000000       0.16271113 </v>
   </varray>
  </crystal>
  <varray name="positions" >
   <v>      -0.50000000       0.00000000      -0.27426398 </v>
   <v>      -0.50000000      -0.50000000      -0.50000000 </v>
   <v>       0.00000000       0.00000000       0.00000000 </v>
   <v>       0.00000000      -0.50000000       0.27426400 </v>
  </varray>
 </structure>
 <varray name="primitive_index" >
  <v type="int" >        1 </v>
  <v type="int" >        4 </v>
  <v type="int" >        3 </v>
  <v type="int" >        2 </v>
 </varray>
 <kpoints>
  <generation param="Gamma">
   <v type="int" name="divisions">       7        7        5 </v>
   <v name="usershift">      0.00000000       0.00000000       0.00000000 </v>
   <v name="genvec1">      0.14285714       0.00000000       0.00000000 </v>
   <v name="genvec2">      0.00000000       0.14285714       0.00000000 </v>
   <v name="genvec3">      0.00000000       0.00000000       0.20000000 </v>
   <v name="shift">      0.00000000       0.00000000       0.00000000 </v>
  </generation>
  <varray name="kpointlist" >
   <v>       0.00000000       0.00000000       0.00000000 </v>
   <v>       0.14285714       0.00000000       0.00000000 </v>
   <v>       0.28571429       0.00000000       0.00000000 </v>
   <v>       0.42857143       0.00000000       0.00000000 </v>
   <v>      -0.42857143       0.00000000       0.00000000 </v>
   <v>      -0.28571429       0.00000000       0.00000000 </v>
   <v>      -0.14285714       0.00000000       0.00000000 </v>
   <v>       0.00000000       0.14285714       0.00000000 </v>
   <v>       0.14285714       0.14285714       0.00000000 </v>
   <v>       0.28571429       0.14285714       0.00000000 </v>
   <v>       0.42857143       0.14285714       0.00000000 </v>
   <v>      -0.42857143       0.14285714       0.00000000 </v>
   <v>      -0.28571429       0.14285714       0.00000000 </v>
   <v>      -0.14285714       0.14285714       0.00000000 </v>
   <v>       0.00000000       0.28571429       0.00000000 </v>
   <v>       0.14285714       0.28571429       0.00000000 </v>
   <v>       0.28571429       0.28571429       0.00000000 </v>
   <v>       0.42857143       0.28571429       0.00000000 </v>
   <v>      -0.42857143       0.28571429       0.00000000 </v>
   <v>      -0.28571429       0.28571429       0.00000000 </v>
   <v>      -0.14285714       0.28571429       0.00000000 </v>
   <v>       0.00000000       0.42857143       0.00000000 </v>
   <v>       0.14285714       0.42857143       0.00000000 </v>
   <v>       0.28571429       0.42857143       0.00000000 </v>
   <v>       0.42857143       0.42857143       0.00000000 </v>
   <v>      -0.42857143       0.42857143       0.00000000 </v>
   <v>      -0.28571429       0.42857143       0.00000000 </v>
   <v>      -0.14285714       0.42857143       0.00000000 </v>
   <v>       0.00000000      -0.42857143       0.00000000 </v>
   <v>       0.14285714      -0.42857143       0.00000000 </v>
   <v>       0.28571429      -0.42857143       0.00000000 </v>
   <v>       0.42857143      -0.42857143       0.00000000 </v>
   <v>      -0.42857143      -0.42857143       0.00000000 </v>
   <v>      -0.28571429      -0.42857143       0.00000000 </v>
   <v>      -0.14285714      -0.42857143       0.00000000 </v>
   <v>       0.00000000      -0.28571429       0.00000000 </v>
   <v>       0.14285714      -0.28571429       0.00000000 </v>
   <v>       0.28571429      -0.28571429       0.00000000 </v>
   <v>       0.42857143      -0.28571429       0.00000000 </v>
   <v>      -0.42857143      -0.28571429       0.00000000 </v>
   <v>      -0.28571429      -0.28571429       0.00000000 </v>
   <v>      -0.14285714      -0.28571429       0.00000000 </v>
   <v>       0.00000000      -0.14285714       0.00000000 </v>
   <v>       0.14285714      -0.14285714       0.00000000 </v>
   <v>       0.28571429      -0.14285714       0.00000000 </v>
   <v>       0.42857143      -0.14285714       0.00000000 </v>
   <v>      -0.42857143      -0.14285714       0.00000000 </v>
   <v>      -0.28571429      -0.14285714       0.00000000 </v>
   <v>      -0.14285714      -0.14285714       0.00000000 </v>
   <v>       0.00000000       0.00000000       0.20000000 </v>
   <v>       0.14285714       0.00000000       0.20000000 </v>
   <v>       0.28571429       0.00000000       0.20000000 </v>
   <v>       0.42857143       0.00000000       0.20000000 </v>
   <v>      -0.42857143       0.00000000       0.20000000 </v>
   <v>      -0.28571429       0.00000000       0.20000000 </v>
   <v>      -0.14285714       0.00000000       0.20000000 </v>
   <v>       0.00000000       0.14285714       0.20000000 </v>
   <v>       0.14285714       0.14285714       0.20000000 </v>
   <v>       0.28571429       0.14285714       0.20000000 </v>
   <v>       0.42857143       0.14285714       0.20000000 </v>
   <v>      -0.42857143       0.14285714       0.20000000 </v>
   <v>      -0.28571429       0.14285714       0.20000000 </v>
   <v>      -0.14285714       0.14285714       0.20000000 </v>
   <v>       0.00000000       0.28571429       0.20000000 </v>
   <v>       0.14285714       0.28571429       0.20000000 </v>
   <v>       0.28571429       0.28571429       0.20000000 </v>
   <v>       0.42857143       0.28571429       0.20000000 </v>
   <v>      -0.42857143       0.28571429       0.20000000 </v>
   <v>      -0.28571429       0.28571429       0.20000000 </v>
   <v>      -0.14285714       0.28571429       0.20000000 </v>
   <v>       0.00000000       0.42857143       0.20000000 </v>
   <v>       0.14285714       0.42857143       0.20000000 </v>
   <v>       0.28571429       0.42857143       0.20000000 </v>
   <v>       0.42857143       0.42857143       0.20000000 </v>
   <v>      -0.42857143       0.42857143       0.20000000 </v>
   <v>      -0.28571429       0.42857143       0.20000000 </v>
   <v>      -0.14285714       0.42857143       0.20000000 </v>
   <v>       0.00000000      -0.42857143       0.20000000 </v>
   <v>       0.14285714      -0.42857143       0.20000000 </v>
   <v>       0.28571429      -0.42857143       0.20000000 </v>
   <v>       0.42857143      -0.42857143       0.20000000 </v>
   <v>      -0.42857143      -0.42857143       0.20000000 </v>
   <v>      -0.28571429      -0.42857143       0.20000000 </v>
   <v>      -0.14285714      -0.42857143       0.20000000 </v>
   <v>       0.00000000      -0.28571429       0.20000000 </v>
   <v>       0.14285714      -0.28571429       0.20000000 </v>
   <v>       0.28571429      -0.28571429       0.20000000 </v>
   <v>       0.42857143      -0.28571429       0.20000000 </v>
   <v>      -0.42857143      -0.28571429       0.20000000 </v>
   <v>      -0.28571429      -0.28571429       0.20000000 </v>
   <v>      -0.14285714      -0.28571429       0.20000000 </v>
   <v>       0.00000000      -0.14285714       0.20000000 </v>
   <v>       0.14285714      -0.14285714       0.20000000 </v>
   <v>       0.28571429      -0.14285714       0.20000000 </v>
   <v>       0.42857143      -0.14285714       0.20000000 </v>
   <v>      -0.42857143      -0.14285714       0.20000000 </v>
   <v>      -0.28571429      -0.14285714       0.20000000 </v>
   <v>      -0.14285714      -0.14285714       0.20000000 </v>
   <v>       0.00000000       0.00000000       0.40000000 </v>
   <v>       0.14285714       0.00000000       0.40000000 </v>
   <v>       0.28571429       0.00000000       0.40000000 </v>
   <v>       0.42857143       0.00000000       0.40000000 </v>
   <v>      -0.42857143       0.00000000       0.40000000 </v>
   <v>      -0.28571429       0.00000000       0.40000000 </v>
   <v>      -0.14285714       0.00000000       0.40000000 </v>
   <v>       0.00000000       0.14285714       0.40000000 </v>
   <v>       0.14285714       0.14285714       0.40000000 </v>
   <v>       0.28571429       0.14285714       0.40000000 </v>
   <v>       0.42857143       0.14285714       0.40000000 </v>
   <v>      -0.42857143       0.14285714       0.40000000 </v>
   <v>      -0.28571429       0.14285714       0.40000000 </v>
   <v>      -0.14285714       0.14285714       0.40000000 </v>
   <v>       0.00000000       0.28571429       0.40000000 </v>
   <v>       0.14285714       0.28571429       0.40000000 </v>
   <v>       0.28571429       0.28571429       0.40000000 </v>
   <v>       0.42857143       0.28571429       0.40000000 </v>
   <v>      -0.42857143       0.28571429       0.40000000 </v>
   <v>      -0.28571429       0.28571429       0.40000000 </v>
   <v>      -0.14285714       0.28571429       0.40000000 </v>
   <v>       0.00000000       0.42857143       0.40000000 </v>
   <v>       0.14285714       0.42857143       0.40000000 </v>
   <v>       0.28571429       0.42857143       0.40000000 </v>
   <v>       0.42857143       0.42857143       0.40000000 </v>
   <v>      -0.42857143       0.42857143       0.40000000 </v>
   <v>      -0.28571429       0.42857143       0.40000000 </v>
   <v>      -0.14285714       0.42857143       0.40000000 </v>
   <v>       0.00000000      -0.42857143       0.40000000 </v>
   <v>       0.14285714      -0.42857143       0.40000000 </v>
   <v>       0.28571429      -0.42857143       0.40000000 </v>
   <v>       0.42857143      -0.42857143       0.40000000 </v>
   <v>      -0.42857143      -0.42857143       0.40000000 </v>
   <v>      -0.28571429      -0.42857143       0.40000000 </v>
   <v>      -0.14285714      -0.42857143       0.40000000 </v>
   <v>       0.00000000      -0.28571429       0.40000000 </v>
   <v>       0.14285714      -0.28571429       0.40000000 </v>
   <v>       0.28571429      -0.28571429       0.40000000 </v>
   <v>       0.42857143      -0.28571429       0.40000000 </v>
   <v>      -0.42857143      -0.28571429       0.40000000 </v>
   <v>      -0.28571429      -0.28571429       0.40000000 </v>
   <v>      -0.14285714      -0.28571429       0.40000000 </v>
   <v>       0.00000000      -0.14285714       0.40000000 </v>
   <v>       0.14285714      -0.14285714       0.40000000 </v>
   <v>       0.28571429      -0.14285714       0.40000000 </v>
   <v>       0.42857143      -0.14285714       0.40000000 </v>
   <v>      -0.42857143      -0.14285714       0.40000000 </v>
   <v>      -0.28571429      -0.14285714       0.40000000 </v>
   <v>      -0.14285714      -0.14285714       0.40000000 </v>
   <v>       0.00000000       0.00000000      -0.40000000 </v>
   <v>       0.14285714       0.00000000      -0.40000000 </v>
   <v>       0.28571429       0.00000000      -0.40000000 </v>
   <v>       0.42857143       0.00000000      -0.40000000 </v>
   <v>      -0.42857143       0.00000000      -0.40000000 </v>
   <v>      -0.28571429       0.00000000      -0.40000000 </v>
   <v>      -0.14285714       0.00000000      -0.40000000 </v>
   <v>       0.00000000       0.14285714      -0.40000000 </v>
   <v>       0.14285714       0.14285714      -0.40000000 </v>
   <v>       0.28571429       0.14285714      -0.40000000 </v>
   <v>       0.42857143       0.14285714      -0.40000000 </v>
   <v>      -0.42857143       0.14285714      -0.40000000 </v>
   <v>      -0.28571429       0.14285714      -0.40000000 </v>
   <v>      -0.14285714       0.14285714      -0.40000000 </v>
   <v>       0.00000000       0.28571429      -0.40000000 </v>
   <v>       0.14285714       0.28571429      -0.40000000 </v>
   <v>       0.28571429       0.28571429      -0.40000000 </v>
   <v>       0.42857143       0.28571429      -0.40000000 </v>
   <v>      -0.42857143       0.28571429      -0.40000000 </v>
   <v>      -0.28571429       0.28571429      -0.40000000 </v>
   <v>      -0.14285714       0.28571429      -0.40000000 </v>
   <v>       0.00000000       0.42857143      -0.40000000 </v>
   <v>       0.14285714       0.42857143      -0.40000000 </v>
   <v>       0.28571429       0.42857143      -0.40000000 </v>
   <v>       0.42857143       0.42857143      -0.40000000 </v>
   <v>      -0.42857143       0.42857143      -0.40000000 </v>
   <v>      -0.28571429       0.42857143      -0.40000000 </v>
   <v>      -0.14285714       0.42857143      -0.40000000 </v>
   <v>       0.00000000      -0.42857143      -0.40000000 </v>
   <v>       0.14285714      -0.42857143      -0.40000000 </v>
   <v>       0.28571429      -0.42857143      -0.40000000 </v>
   <v>       0.42857143      -0.42857143      -0.40000000 </v>
   <v>      -0.42857143      -0.42857143      -0.40000000 </v>
   <v>      -0.28571429      -0.42857143      -0.40000000 </v>
   <v>      -0.14285714      -0.42857143      -0.40000000 </v>
   <v>       0.00000000      -0.28571429      -0.40000000 </v>
   <v>       0.14285714      -0.28571429      -0.40000000 </v>
   <v>       0.28571429      -0.28571429      -0.40000000 </v>
   <v>       0.42857143      -0.28571429      -0.40000000 </v>
   <v>      -0.42857143      -0.28571429      -0.40000000 </v>
   <v>      -0.28571429      -0.28571429      -0.40000000 </v>
   <v>      -0.14285714      -0.28571429      -0.40000000 </v>
   <v>       0.00000000      -0.14285714      -0.40000000 </v>
   <v>       0.14285714      -0.14285714      -0.40000000 </v>
   <v>       0.28571429      -0.14285714      -0.40000000 </v>
   <v>       0.42857143      -0.14285714      -0.40000000 </v>
   <v>      -0.42857143      -0.14285714      -0.40000000 </v>
   <v>      -0.28571429      -0.14285714      -0.40000000 </v>
   <v>      -0.14285714      -0.14285714      -0.40000000 </v>
   <v>       0.00000000       0.00000000      -0.20000000 </v>
   <v>       0.14285714       0.00000000      -0.20000000 </v>
   <v>       0.28571429       0.00000000      -0.20000000 </v>
   <v>       0.42857143       0.00000000      -0.20000000 </v>
   <v>      -0.42857143       0.00000000      -0.20000000 </v>
   <v>      -0.28571429       0.00000000      -0.20000000 </v>
   <v>      -0.14285714       0.00000000      -0.20000000 </v>
   <v>       0.00000000       0.14285714      -0.20000000 </v>
   <v>       0.14285714       0.14285714      -0.20000000 </v>
   <v>       0.28571429       0.14285714      -0.20000000 </v>
   <v>       0.42857143       0.14285714      -0.20000000 </v>
   <v>      -0.42857143       0.14285714      -0.20000000 </v>
   <v>      -0.28571429       0.14285714      -0.20000000 </v>
   <v>      -0.14285714       0.14285714      -0.20000000 </v>
   <v>       0.00000000       0.28571429      -0.20000000 </v>
   <v>       0.14285714       0.28571429      -0.20000000 </v>
   <v>       0.28571429       0.28571429      -0.20000000 </v>
   <v>       0.42857143       0.28571429      -0.20000000 </v>
   <v>      -0.42857143       0.28571429      -0.20000000 </v>
   <v>      -0.28571429       0.28571429      -0.20000000 </v>
   <v>      -0.14285714       0.28571429      -0.20000000 </v>
   <v>       0.00000000       0.42857143      -0.20000000 </v>
   <v>       0.14285714       0.42857143      -0.20000000 </v>
   <v>       0.28571429       0.42857143      -0.20000000 </v>
   <v>       0.42857143       0.42857143      -0.20000000 </v>
   <v>      -0.42857143       0.42857143      -0.20000000 </v>
   <v>      -0.28571429       0.42857143      -0.20000000 </v>
   <v>      -0.14285714       0.42857143      -0.20000000 </v>
   <v>       0.00000000      -0.42857143      -0.20000000 </v>
   <v>       0.14285714      -0.42857143      -0.20000000 </v>
   <v>       0.28571429      -0.42857143      -0.20000000 </v>
   <v>       0.42857143      -0.42857143      -0.20000000 </v>
   <v>      -0.42857143      -0.42857143      -0.20000000 </v>
   <v>      -0.28571429      -0.42857143      -0.20000000 </v>
   <v>      -0.14285714      -0.42857143      -0.20000000 </v>
   <v>       0.00000000      -0.28571429      -0.20000000 </v>
   <v>       0.14285714      -0.28571429      -0.20000000 </v>
   <v>       0.28571429      -0.28571429      -0.20000000 </v>
   <v>       0.42857143      -0.28571429      -0.20000000 </v>
   <v>      -0.42857143      -0.28571429      -0.20000000 </v>
   <v>      -0.28571429      -0.28571429      -0.20000000 </v>
   <v>      -0.14285714      -0.28571429      -0.20000000 </v>
   <v>       0.00000000      -0.14285714      -0.20000000 </v>
   <v>       0.14285714      -0.14285714      -0.20000000 </v>
   <v>       0.28571429      -0.14285714      -0.20000000 </v>
   <v>       0.42857143      -0.14285714      -0.20000000 </v>
   <v>      -0.42857143      -0.14285714      -0.20000000 </v>
   <v>      -0.28571429      -0.14285714      -0.20000000 </v>
   <v>      -0.14285714      -0.14285714      -0.20000000 </v>
  </varray>
  <varray name="weights" >
   <v>       0.00408163 </v>
   <v>       0.00408163 </v>
   <v>       0.00408163 </v>
   <v>       0.00408163 </v>
   <v>       0.00408163 </v>
   <v>       0.00408163 </v>
   <v>       0.00408163 </v>
   <v>       0.00408163 </v>
   <v>       0.00408163 </v>
   <v>       0.00408163 </v>
   <v>       0.00408163 </v>
   <v>       0.00408163 </v>
   <v>       0.00408163 </v>
   <v>       0.00408163 </v>
   <v>       0.00408163 </v>
   <v>       0.00408163 </v>
   <v>       0.00408163 </v>
   <v>       0.00408163 </v>
   <v>       0.00408163 </v>
   <v>       0.00408163 </v>
   <v>       0.00408163 </v>
   <v>       0.00408163 </v>
   <v>       0.00408163 </v>
   <v>       0.00408163 </v>
   <v>       0.00408163 </v>
   <v>       0.00408163 </v>
   <v>       0.00408163 </v>
   <v>       0.00408163 </v>
   <v>       0.00408163 </v>
   <v>       0.00408163 </v>
   <v>       0.00408163 </v>
   <v>       0.00408163 </v>
   <v>       0.00408163 </v>
   <v>       0.00408163 </v>
   <v>       0.00408163 </v>
   <v>       0.00408163 </v>
   <v>       0.00408163 </v>
   <v>       0.00408163 </v>
   <v>       0.00408163 </v>
   <v>       0.00408163 </v>
   <v>       0.00408163 </v>
   <v>       0.00408163 </v>
   <v>       0.00408163 </v>
   <v>       0.00408163 </v>
   <v>       0.00408163 </v>
   <v>       0.00408163 </v>
   <v>       0.00408163 </v>
   <v>       0.00408163 </v>
   <v>       0.00408163 </v>
   <v>       0.00408163 </v>
   <v>       0.00408163 </v>
   <v>       0.00408163 </v>
   <v>       0.00408163 </v>
   <v>       0.00408163 </v>
   <v>       0.00408163 </v>
   <v>       0.00408163 </v>
   <v>       0.00408163 </v>
   <v>       0.00408163 </v>
   <v>       0.00408163 </v>
   <v>       0.00408163 </v>
   <v>       0.00408163 </v>
   <v>       0.00408163 </v>
   <v>       0.00408163 </v>
   <v>       0.00408163 </v>
   <v>       0.00408163 </v>
   <v>       0.00408163 </v>
   <v>       0.00408163 </v>
   <v>       0.00408163 </v>
   <v>       0.00408163 </v>
   <v>       0.00408163 </v>
   <v>       0.00408163 </v>
   <v>       0.00408163 </v>
   <v>       0.00408163 </v>
   <v>       0.00408163 </v>
   <v>       0.00408163 </v>
   <v>       0.00408163 </v>
   <v>       0.00408163 </v>
   <v>       0.00408163 </v>
   <v>       0.00408163 </v>
   <v>       0.00408163 </v>
   <v>       0.00408163 </v>
   <v>       0.00408163 </v>
   <v>       0.00408163 </v>
   <v>       0.00408163 </v>
   <v>       0.00408163 </v>
   <v>       0.00408163 </v>
   <v>       0.00408163 </v>
   <v>       0.00408163 </v>
   <v>       0.00408163 </v>
   <v>       0.00408163 </v>
   <v>       0.00408163 </v>
   <v>       0.00408163 </v>
   <v>       0.00408163 </v>
   <v>       0.00408163 </v>
   <v>       0.00408163 </v>
   <v>       0.00408163 </v>
   <v>       0.00408163 </v>
   <v>       0.00408163 </v>
   <v>       0.00408163 </v>
   <v>       0.00408163 </v>
   <v>       0.00408163 </v>
   <v>       0.00408163 </v>
   <v>       0.00408163 </v>
   <v>       0.00408163 </v>
   <v>       0.00408163 </v>
   <v>       0.00408163 </v>
   <v>       0.00408163 </v>
   <v>       0.00408163 </v>
   <v>       0.00408163 </v>
   <v>       0.00408163 </v>
   <v>       0.00408163 </v>
   <v>       0.00408163 </v>
   <v>       0.00408163 </v>
   <v>       0.00408163 </v>
   <v>       0.00408163 </v>
   <v>       0.00408163 </v>
   <v>       0.00408163 </v>
   <v>       0.00408163 </v>
   <v>       0.00408163 </v>
   <v>       0.00408163 </v>
   <v>       0.00408163 </v>
   <v>       0.00408163 </v>
   <v>       0.00408163 </v>
   <v>       0.00408163 </v>
   <v>       0.00408163 </v>
   <v>       0.00408163 </v>
   <v>       0.00408163 </v>
   <v>       0.00408163 </v>
   <v>       0.00408163 </v>
   <v>       0.00408163 </v>
   <v>       0.00408163 </v>
   <v>       0.00408163 </v>
   <v>       0.00408163 </v>
   <v>       0.00408163 </v>
   <v>       0.00408163 </v>
   <v>       0.00408163 </v>
   <v>       0.00408163 </v>
   <v>       0.00408163 </v>
   <v>       0.00408163 </v>
   <v>       0.00408163 </v>
   <v>       0.00408163 </v>
   <v>       0.00408163 </v>
   <v>       0.00408163 </v>
   <v>       0.00408163 </v>
   <v>       0.00408163 </v>
   <v>       0.00408163 </v>
   <v>       0.00408163 </v>
   <v>       0.00408163 </v>
   <v>       0.00408163 </v>
   <v>       0.00408163 </v>
   <v>       0.00408163 </v>
   <v>       0.00408163 </v>
   <v>       0.00408163 </v>
   <v>       0.00408163 </v>
   <v>       0.00408163 </v>
   <v>       0.00408163 </v>
   <v>       0.00408163 </v>
   <v>       0.00408163 </v>
   <v>       0.00408163 </v>
   <v>       0.00408163 </v>
   <v>       0.00408163 </v>
   <v>       0.00408163 </v>
   <v>       0.00408163 </v>
   <v>       0.00408163 </v>
   <v>       0.00408163 </v>
   <v>       0.00408163 </v>
   <v>       0.00408163 </v>
   <v>       0.00408163 </v>
   <v>       0.00408163 </v>
   <v>       0.00408163 </v>
   <v>       0.00408163 </v>
   <v>       0.00408163 </v>
   <v>       0.00408163 </v>
   <v>       0.00408163 </v>
   <v>       0.00408163 </v>
   <v>       0.00408163 </v>
   <v>       0.00408163 </v>
   <v>       0.00408163 </v>
   <v>       0.00408163 </v>
   <v>       0.00408163 </v>
   <v>       0.00408163 </v>
   <v>       0.00408163 </v>
   <v>       0.00408163 </v>
   <v>       0.00408163 </v>
   <v>       0.00408163 </v>
   <v>       0.00408163 </v>
   <v>       0.00408163 </v>
   <v>       0.00408163 </v>
   <v>       0.00408163 </v>
   <v>       0.00408163 </v>
   <v>       0.00408163 </v>
   <v>       0.00408163 </v>
   <v>       0.00408163 </v>
   <v>       0.00408163 </v>
   <v>       0.00408163 </v>
   <v>       0.00408163 </v>
   <v>       0.00408163 </v>
   <v>       0.00408163 </v>
   <v>       0.00408163 </v>
   <v>       0.00408163 </v>
   <v>       0.00408163 </v>
   <v>       0.00408163 </v>
   <v>       0.00408163 </v>
   <v>       0.00408163 </v>
   <v>       0.00408163 </v>
   <v>       0.00408163 </v>
   <v>       0.00408163 </v>
   <v>       0.00408163 </v>
   <v>       0.00408163 </v>
   <v>       0.00408163 </v>
   <v>       0.00408163 </v>
   <v>       0.00408163 </v>
   <v>       0.00408163 </v>
   <v>       0.00408163 </v>
   <v>       0.00408163 </v>
   <v>       0.00408163 </v>
   <v>       0.00408163 </v>
   <v>       0.00408163 </v>
   <v>       0.00408163 </v>
   <v>       0.00408163 </v>
   <v>       0.00408163 </v>
   <v>       0.00408163 </v>
   <v>       0.00408163 </v>
   <v>       0.00408163 </v>
   <v>       0.00408163 </v>
   <v>       0.00408163 </v>
   <v>       0.00408163 </v>
   <v>       0.00408163 </v>
   <v>       0.00408163 </v>
   <v>       0.00408163 </v>
   <v>       0.00408163 </v>
   <v>       0.00408163 </v>
   <v>       0.00408163 </v>
   <v>       0.00408163 </v>
   <v>       0.00408163 </v>
   <v>       0.00408163 </v>
   <v>       0.00408163 </v>
   <v>       0.00408163 </v>
   <v>       0.00408163 </v>
   <v>       0.00408163 </v>
   <v>       0.00408163 </v>
   <v>       0.00408163 </v>
   <v>       0.00408163 </v>
   <v>       0.00408163 </v>
   <v>       0.00408163 </v>
  </varray>
 </kpoints>
 <parameters>
  <separator name="general" >
   <i type="string" name="SYSTEM">Sn</i>
   <i type="logical" name="LCOMPAT"> F  </i>
  </separator>
  <separator name="electronic" >
   <i type="string" name="PREC">accura</i>
   <i name="ENMAX">    500.00000000</i>
   <i name="ENAUG">    462.75800000</i>
   <i name="EDIFF">      0.00000010</i>
   <i type="int" name="IALGO">    38</i>
   <i type="int" name="IWAVPR">    10</i>
   <i type="int" name="NBANDS">    48</i>
   <i name="NELECT">     26.00000000</i>
   <i type="int" name="TURBO">     0</i>
   <i type="int" name="IRESTART">     0</i>
   <i type="int" name="NREBOOT">     0</i>
   <i type="int" name="NMIN">     0</i>
   <i name="EREF">      0.00000000</i>
   <separator name="electronic smearing" >
    <i type="int" name="ISMEAR">     0</i>
    <i name="SIGMA">      0.05000000</i>
    <i name="KSPACING">      0.50000000</i>
    <i type="logical" name="KGAMMA"> T  </i>
   </separator>
   <separator name="electronic projectors" >
    <i type="logical" name="LREAL"> F  </i>
    <v name="ROPT">      0.00000000      0.00000000      0.00000000</v>
    <i type="int" name="LMAXPAW">  -100</i>
    <i type="int" name="LMAXMIX">     2</i>
    <i type="logical" name="NLSPLINE"> F  </i>
   </separator>
   <separator name="electronic startup" >
    <i type="int" name="ISTART">     1</i>
    <i type="int" name="ICHARG">     2</i>
    <i type="int" name="INIWAV">     1</i>
   </separator>
   <separator name="electronic spin" >
    <i type="int" name="ISPIN">     1</i>
    <i type="logical" name="LNONCOLLINEAR"> T  </i>
    <v name="MAGMOM">      1.00000000      1.00000000      1.00000000      1.00000000      1.00000000      1.00000000      1.00000000      1.00000000      1.00000000      1.00000000      1.00000000      1.00000000</v>
    <i name="NUPDOWN">     -1.00000000</i>
    <i type="logical" name="LSORBIT"> T  </i>
    <v name="SAXIS">      0.00000000      0.00000000      1.00000000</v>
    <i type="logical" name="LSPIRAL"> F  </i>
    <v name="QSPIRAL">      0.00000000      0.00000000      0.00000000</v>
    <i type="logical" name="LZEROZ"> F  </i>
   </separator>
   <separator name="electronic exchange-correlation" >
    <i type="logical" name="LASPH"> F  </i>
    <i type="logical" name="LMETAGGA"> F  </i>
   </separator>
   <separator name="electronic convergence" >
    <i type="int" name="NELM">    60</i>
    <i type="int" name="NELMDL">     0</i>
    <i type="int" name="NELMIN">     2</i>
    <i name="ENINI">    500.00000000</i>
    <separator name="electronic convergence detail" >
     <i type="logical" name="LDIAG"> T  </i>
     <i type="logical" name="LSUBROT"> F  </i>
     <i name="WEIMIN">      0.00000000</i>
     <i name="EBREAK">      0.00000000</i>
     <i name="DEPER">      0.30000000</i>
     <i type="int" name="NRMM">     4</i>
     <i name="TIME">      0.40000000</i>
    </separator>
   </separator>
   <separator name="electronic mixer" >
    <i name="AMIX">      0.40000000</i>
    <i name="BMIX">      1.00000000</i>
    <i name="AMIN">      0.10000000</i>
    <i name="AMIX_MAG">      1.60000000</i>
    <i name="BMIX_MAG">      1.00000000</i>
    <separator name="electronic mixer details" >
     <i type="int" name="IMIX">     4</i>
     <i type="logical" name="MIXFIRST"> F  </i>
     <i type="int" name="MAXMIX">   -45</i>
     <i name="WC">    100.00000000</i>
     <i type="int" name="INIMIX">     1</i>
     <i type="int" name="MIXPRE">     1</i>
     <i type="int" name="MREMOVE">     5</i>
    </separator>
   </separator>
   <separator name="electronic dipolcorrection" >
    <i type="logical" name="LDIPOL"> F  </i>
    <i type="logical" name="LMONO"> F  </i>
    <i type="int" name="IDIPOL">     0</i>
    <i name="EPSILON">      1.00000000</i>
    <v name="DIPOL">   -100.00000000   -100.00000000   -100.00000000</v>
    <i name="EFIELD">      0.00000000</i>
   </separator>
  </separator>
  <separator name="grids" >
   <i type="int" name="NGX">    32</i>
   <i type="int" name="NGY">    32</i>
   <i type="int" name="NGZ">    48</i>
   <i type="int" name="NGXF">    64</i>
   <i type="int" name="NGYF">    64</i>
   <i type="int" name="NGZF">    96</i>
   <i type="logical" name="ADDGRID"> F  </i>
  </separator>
  <separator name="ionic" >
   <i type="int" name="NSW">     0</i>
   <i type="int" name="IBRION">    -1</i>
   <i type="int" name="MDALGO">     0</i>
   <i type="int" name="ISIF">     2</i>
   <i name="PSTRESS">      0.00000000</i>
   <i name="EDIFFG">     -0.01000000</i>
   <i type="int" name="NFREE">     0</i>
   <i name="POTIM">      0.50000000</i>
   <i name="SMASS">     -3.00000000</i>
   <i name="SCALEE">      1.00000000</i>
  </separator>
  <separator name="ionic md" >
   <i name="TEBEG">      0.00010000</i>
   <i name="TEEND">      0.00010000</i>
   <i type="int" name="NBLOCK">     1</i>
   <i type="int" name="KBLOCK">     1</i>
   <i type="int" name="NPACO">   256</i>
   <i name="APACO">     16.00000000</i>
  </separator>
  <separator name="symmetry" >
   <i type="int" name="ISYM">     0</i>
   <i name="SYMPREC">      0.00001000</i>
  </separator>
  <separator name="dos" >
   <i type="int" name="LORBIT">     0</i>
   <v name="RWIGS">     -1.00000000     -1.00000000     -1.00000000</v>
   <i type="int" name="NEDOS">   301</i>
   <i name="EMIN">     10.00000000</i>
   <i name="EMAX">    -10.00000000</i>
   <i name="EFERMI">      0.00000000</i>
  </separator>
  <separator name="writing" >
   <i type="int" name="NWRITE">     2</i>
   <i type="logical" name="LWAVE"> F  </i>
   <i type="logical" name="LDOWNSAMPLE"> F  </i>
   <i type="logical" name="LCHARG"> F  </i>
   <i type="logical" name="LPARD"> F  </i>
   <i type="logical" name="LVTOT"> F  </i>
   <i type="logical" name="LVHAR"> F  </i>
   <i type="logical" name="LELF"> F  </i>
   <i type="logical" name="LOPTICS"> F  </i>
   <v name="STM">      0.00000000      0.00000000      0.00000000      0.00000000      0.00000000      0.00000000      0.00000000</v>
  </separator>
  <separator name="performance" >
   <i type="int" name="NPAR">    24</i>
   <i type="int" name="NSIM">     4</i>
   <i type="int" name="NBLK">    -1</i>
   <i type="logical" name="LPLANE"> T  </i>
   <i type="logical" name="LSCALAPACK"> T  </i>
   <i type="logical" name="LSCAAWARE"> F  </i>
   <i type="logical" name="LSCALU"> F  </i>
   <i type="logical" name="LASYNC"> F  </i>
   <i type="logical" name="LORBITALREAL"> F  </i>
  </separator>
  <separator name="miscellaneous" >
   <i type="int" name="IDIOT">     3</i>
   <i type="int" name="ISPECIAL">     0</i>
   <i type="logical" name="LMUSIC"> F  </i>
   <v name="POMASS">     69.72300000    208.98000000     74.92200000</v>
   <v name="DARWINR">      0.00000000      0.00000000      0.00000000</v>
   <v name="DARWINV">      1.00000000      1.00000000      1.00000000</v>
   <i type="logical" name="LCORR"> T  </i>
  </separator>
  <i type="logical" name="GGA_COMPAT"> T  </i>
  <i type="logical" name="LBERRY"> F  </i>
  <i type="int" name="ICORELEVEL">     0</i>
  <i type="logical" name="LDAU"> F  </i>
  <i type="int" name="I_CONSTRAINED_M">     0</i>
  <separator name="electronic exchange-correlation" >
   <i type="string" name="GGA">PE</i>
   <i type="int" name="VOSKOWN">     0</i>
   <i type="logical" name="LHFCALC"> F  </i>
   <i type="string" name="PRECFOCK"></i>
   <i type="logical" name="LSYMGRAD"> F  </i>
   <i type="logical" name="LHFONE"> F  </i>
   <i type="logical" name="LRHFCALC"> F  </i>
   <i type="logical" name="LTHOMAS"> F  </i>
   <i type="logical" name="LMODELHF"> F  </i>
   <i name="ENCUT4O">     -1.00000000</i>
   <i type="int" name="EXXOEP">     0</i>
   <i type="int" name="FOURORBIT">     0</i>
   <i name="AEXX">      0.00000000</i>
   <i name="HFALPHA">      0.00000000</i>
   <i name="MCALPHA">      0.00000000</i>
   <i name="ALDAX">      1.00000000</i>
   <i name="AGGAX">      1.00000000</i>
   <i name="ALDAC">      1.00000000</i>
   <i name="AGGAC">      1.00000000</i>
   <i type="int" name="NKREDX">     1</i>
   <i type="int" name="NKREDY">     1</i>
   <i type="int" name="NKREDZ">     1</i>
   <i type="logical" name="SHIFTRED"> F  </i>
   <i type="logical" name="ODDONLY"> F  </i>
   <i type="logical" name="EVENONLY"> F  </i>
   <i type="int" name="LMAXFOCK">     0</i>
   <i type="int" name="NMAXFOCKAE">     0</i>
   <i type="logical" name="LFOCKAEDFT"> F  </i>
   <i name="HFSCREEN">      0.00000000</i>
   <i name="HFSCREENC">      0.00000000</i>
   <i type="int" name="NBANDSGWLOW">     0</i>
  </separator>
  <separator name="vdW DFT" >
   <i type="logical" name="LUSE_VDW"> F  </i>
   <i name="Zab_VDW">     -0.84910000</i>
   <i name="PARAM1">      0.12340000</i>
   <i name="PARAM2">      1.00000000</i>
   <i name="PARAM3">      0.00000000</i>
  </separator>
  <separator name="model GW" >
   <i type="int" name="MODEL_GW">     0</i>
   <i name="MODEL_EPS0">     17.04666266</i>
   <i name="MODEL_ALPHA">      1.00000000</i>
  </separator>
  <separator name="linear response parameters" >
   <i type="logical" name="LEPSILON"> F  </i>
   <i type="logical" name="LRPA"> F  </i>
   <i type="logical" name="LNABLA"> F  </i>
   <i type="logical" name="LVEL"> F  </i>
   <i type="int" name="KINTER">     0</i>
   <i name="CSHIFT">      0.10000000</i>
   <i name="OMEGAMAX">     -1.00000000</i>
   <i name="DEG_THRESHOLD">      0.00200000</i>
   <i name="RTIME">     -0.10000000</i>
   <i name="WPLASMAI">      0.00000000</i>
   <v name="DFIELD">      0.00000000      0.00000000      0.00000000</v>
   <v name="WPLASMA">      0.00000000      0.00000000      0.00000000      0.00000000      0.00000000      0.00000000      0.00000000      0.00000000      0.00000000</v>
  </separator>
  <separator name="orbital magnetization" >
   <i type="logical" name="NUCIND"> F  </i>
   <v name="MAGPOS">      0.00000000      0.00000000      0.00000000</v>
   <i type="logical" name="LNICSALL"> T  </i>
   <i type="logical" name="ORBITALMAG"> F  </i>
   <i type="logical" name="LMAGBLOCH"> F  </i>
   <i type="logical" name="LCHIMAG"> F  </i>
   <i type="logical" name="LGAUGE"> T  </i>
   <i type="int" name="MAGATOM">     0</i>
   <v name="MAGDIPOL">      0.00000000      0.00000000      0.00000000</v>
   <v name="AVECCONST">      0.00000000      0.00000000      0.00000000</v>
  </separator>
  <separator name="response functions" >
   <i type="logical" name="LADDER"> F  </i>
   <i type="logical" name="LRPAFORCE"> F  </i>
   <i type="logical" name="LFXC"> F  </i>
   <i type="logical" name="LHARTREE"> T  </i>
   <i type="int" name="IBSE">     0</i>
   <v type="int" name="KPOINT">    -1     0     0     0</v>
   <i type="logical" name="LTCTE"> F  </i>
   <i type="logical" name="LTETE"> F  </i>
   <i type="logical" name="LTRIPLET"> F  </i>
   <i type="logical" name="LFXCEPS"> F  </i>
   <i type="logical" name="LFXHEG"> F  </i>
   <i type="int" name="NATURALO">     2</i>
   <i type="logical" name="L2ORDER"> F  </i>
   <i type="logical" name="LMP2LT"> F  </i>
   <i type="logical" name="LUSEW"> F  </i>
   <i name="ENCUTGW">     -2.00000000</i>
   <i name="ENCUTGWSOFT">     -2.00000000</i>
   <i name="ENCUTLF">     -1.00000000</i>
   <i type="int" name="LMAXMP2">    -1</i>
   <i name="SCISSOR">      0.00000000</i>
   <i type="int" name="NOMEGA">     0</i>
   <i type="int" name="NOMEGAR">     0</i>
   <i type="int" name="NBANDSGW">    -1</i>
   <i type="int" name="NBANDSO">    -1</i>
   <i type="int" name="NBANDSV">    -1</i>
   <i type="int" name="NELM">     1</i>
   <i type="int" name="NELMHF">     1</i>
   <i type="int" name="DIM">     3</i>
   <i type="int" name="ANTIRES">     0</i>
   <i name="OMEGAMAX">    -30.00000000</i>
   <i name="OMEGAMIN">    -30.00000000</i>
   <i name="OMEGATL">   -200.00000000</i>
   <i type="int" name="OMEGAGRID">   140</i>
   <i name="CSHIFT">     -0.10000000</i>
   <i type="logical" name="SELFENERGY"> F  </i>
   <i type="logical" name="LSPECTRAL"> F  </i>
   <i type="logical" name="LSPECTRALGW"> F  </i>
   <i type="logical" name="LSINGLES"> F  </i>
   <i type="logical" name="LFERMIGW"> F  </i>
   <i type="logical" name="ODDONLYGW"> F  </i>
   <i type="logical" name="EVENONLYGW"> F  </i>
   <i type="int" name="NKREDLFX">     1</i>
   <i type="int" name="NKREDLFY">     1</i>
   <i type="int" name="NKREDLFZ">     1</i>
   <i type="int" name="MAXMEM">  2800</i>
   <i type="int" name="TELESCOPE">     0</i>
   <i type="int" name="TAUPAR">     1</i>
   <i type="int" name="OMEGAPAR">    -1</i>
   <i name="LAMBDA">      1.00000000</i>
  </separator>
  <separator name="External order field" >
   <i name="OFIELD_KAPPA">      0.00000000</i>
   <v name="OFIELD_K">      0.00000000      0.00000000      0.00000000</v>
   <i name="OFIELD_Q6_NEAR">      0.00000000</i>
   <i name="OFIELD_Q6_FAR">      0.00000000</i>
   <i name="OFIELD_A">      0.00000000</i>
  </separator>
 </parameters>
 <atominfo>
  <atoms>       4 </atoms>
  <types>       3 </types>
  <array name="atoms" >
   <dimension dim="1">ion</dimension>
   <field type="string">element</field>
   <field type="int">atomtype</field>
   <set>
    <rc><c>Ga</c><c>   1</c></rc>
    <rc><c>Ga</c><c>   1</c></rc>
    <rc><c>Bi</c><c>   2</c></rc>
    <rc><c>As</c><c>   3</c></rc>
   </set>
  </array>
  <array name="atomtypes" >
   <dimension dim="1">type</dimension>
   <field type="int">atomspertype</field>
   <field type="string">element</field>
   <field>mass</field>
   <field>valence</field>
   <field type="string">pseudopotential</field>
   <set>
    <rc><c>   2</c><c>Ga</c><c>     69.72300000</c><c>      3.00000000</c><c>  PAW_PBE Ga 08Apr2002                  </c></rc>
    <rc><c>   1</c><c>Bi</c><c>    208.98000000</c><c>     15.00000000</c><c>  PAW_PBE Bi_d 06Sep2000                </c></rc>
    <rc><c>   1</c><c>As</c><c>     74.92200000</c><c>      5.00000000</c><c>  PAW_PBE As 22Sep2009                  </c></rc>
   </set>
  </array>
 </atominfo>
 <structure name="initialpos" >
  <crystal>
   <varray name="basis" >
    <v>       4.30014086       0.00000000       0.00000000 </v>
    <v>       0.00000000       4.30014086       0.00000000 </v>
    <v>       0.00000000       0.00000000       6.14586115 </v>
   </varray>
   <i name="volume">    113.64441771 </i>
   <varray name="rec_basis" >
    <v>       0.23255052       0.00000000       0.00000000 </v>
    <v>       0.00000000       0.23255052       0.00000000 </v>
    <v>       0.00000000       0.00000000       0.16271113 </v>
   </varray>
  </crystal>
  <varray name="positions" >
   <v>       0.50000000       0.00000000       0.72573602 </v>
   <v>       0.00000000       0.50000000       0.27426400 </v>
   <v>       0.00000000       0.00000000       0.00000000 </v>
   <v>       0.50000000       0.50000000       0.50000000 </v>
  </varray>
 </structure>
 <calculation>
  <scstep>
   <time name="dav">   56.62   78.02</time>
   <time name="total">   58.04   80.36</time>
   <energy>
    <i name="alphaZ">     64.20128509 </i>
    <i name="ewald">  -1439.91766544 </i>
    <i name="hartreedc">   -749.41397116 </i>
    <i name="XCdc">     -0.63881372 </i>
    <i name="pawpsdc">   1945.46521363 </i>
    <i name="pawaedc">  -1846.94975616 </i>
    <i name="eentropy">     -0.00093591 </i>
    <i name="bandstr">   -233.51010790 </i>
    <i name="atom">   2247.12322143 </i>
    <i name="e_fr_energy">    -13.64153015 </i>
    <i name="e_wo_entrp">    -13.64059424 </i>
    <i name="e_0_energy">    -13.64106219 </i>
   </energy>
  </scstep>
  <scstep>
   <time name="dav">   46.39   65.13</time>
   <time name="total">   48.77   68.29</time>
   <energy>
    <i name="e_fr_energy">    -15.34596455 </i>
    <i name="e_wo_entrp">    -15.34561176 </i>
    <i name="e_0_energy">    -15.34578816 </i>
   </energy>
  </scstep>
  <scstep>
   <time name="dav">   60.82   76.74</time>
   <time name="total">   62.18   79.30</time>
   <energy>
    <i name="e_fr_energy">    -15.61912567 </i>
    <i name="e_wo_entrp">    -15.61849564 </i>
    <i name="e_0_energy">    -15.61881066 </i>
   </energy>
  </scstep>
  <scstep>
   <time name="dav">   49.01   66.35</time>
   <time name="total">   50.87   68.67</time>
   <energy>
    <i name="e_fr_energy">    -15.63279278 </i>
    <i name="e_wo_entrp">    -15.63145924 </i>
    <i name="e_0_energy">    -15.63212601 </i>
   </energy>
  </scstep>
  <scstep>
   <time name="dav">   50.47   67.98</time>
   <time name="total">   52.32   70.26</time>
   <energy>
    <i name="e_fr_energy">    -15.63100639 </i>
    <i name="e_wo_entrp">    -15.62974891 </i>
    <i name="e_0_energy">    -15.63037765 </i>
   </energy>
  </scstep>
  <scstep>
   <time name="dav">   48.89   70.24</time>
   <time name="total">   50.07   72.74</time>
   <energy>
    <i name="e_fr_energy">    -15.63205055 </i>
    <i name="e_wo_entrp">    -15.63069071 </i>
    <i name="e_0_energy">    -15.63137063 </i>
   </energy>
  </scstep>
  <scstep>
   <time name="dav">   45.66   65.78</time>
   <time name="total">   46.80   68.17</time>
   <energy>
    <i name="e_fr_energy">    -15.63259353 </i>
    <i name="e_wo_entrp">    -15.63121941 </i>
    <i name="e_0_energy">    -15.63190647 </i>
   </energy>
  </scstep>
  <scstep>
   <time name="dav">   48.76   71.46</time>
   <time name="total">   50.01   74.05</time>
   <energy>
    <i name="e_fr_energy">    -15.63275554 </i>
    <i name="e_wo_entrp">    -15.63137994 </i>
    <i name="e_0_energy">    -15.63206774 </i>
   </energy>
  </scstep>
  <scstep>
   <time name="dav">   52.68   67.49</time>
   <time name="total">   54.09   69.27</time>
   <energy>
    <i name="e_fr_energy">    -15.63280311 </i>
    <i name="e_wo_entrp">    -15.63142678 </i>
    <i name="e_0_energy">    -15.63211494 </i>
   </energy>
  </scstep>
  <scstep>
   <time name="dav">   53.64   71.68</time>
   <time name="total">   55.23   73.69</time>
   <energy>
    <i name="e_fr_energy">    -15.63280846 </i>
    <i name="e_wo_entrp">    -15.63143200 </i>
    <i name="e_0_energy">    -15.63212023 </i>
   </energy>
  </scstep>
  <scstep>
   <time name="dav">   48.03   66.41</time>
   <time name="total">   49.39   68.19</time>
   <energy>
    <i name="e_fr_energy">    -15.63280981 </i>
    <i name="e_wo_entrp">    -15.63143325 </i>
    <i name="e_0_energy">    -15.63212153 </i>
   </energy>
  </scstep>
  <scstep>
   <time name="dav">   49.86   69.23</time>
   <time name="total">   51.15   71.75</time>
   <energy>
    <i name="e_fr_energy">    -15.63281011 </i>
    <i name="e_wo_entrp">    -15.63143349 </i>
    <i name="e_0_energy">    -15.63212180 </i>
   </energy>
  </scstep>
  <scstep>
   <time name="dav">   44.04   64.31</time>
   <time name="total">   44.17   64.94</time>
   <energy>
    <i name="alphaZ">     64.20128509 </i>
    <i name="ewald">  -1439.91766544 </i>
    <i name="hartreedc">   -754.60614824 </i>
    <i name="XCdc">     -0.91639863 </i>
    <i name="pawpsdc">   2401.25295928 </i>
    <i name="pawaedc">  -2306.85725041 </i>
    <i name="eentropy">     -0.00137663 </i>
    <i name="bandstr">   -225.91143662 </i>
    <i name="atom">   2247.12322143 </i>
    <i name="e_fr_energy">    -15.63281018 </i>
    <i name="e_wo_entrp">    -15.63143355 </i>
    <i name="e_0_energy">    -15.63212186 </i>
   </energy>
  </scstep>
  <structure>
   <crystal>
    <varray name="basis" >
     <v>       4.30014086       0.00000000       0.00000000 </v>
     <v>       0.00000000       4.30014086       0.00000000 </v>
     <v>       0.00000000       0.00000000       6.14586115 </v>
    </varray>
    <i name="volume">    113.64441771 </i>
    <varray name="rec_basis" >
     <v>       0.23255052       0.00000000       0.00000000 </v>
     <v>       0.00000000       0.23255052       0.00000000 </v>
     <v>       0.00000000       0.00000000       0.16271113 </v>
    </varray>
   </crystal>
   <varray name="positions" >
    <v>       0.50000000       0.00000000       0.72573602 </v>
    <v>       0.00000000       0.50000000       0.27426400 </v>
    <v>       0.00000000       0.00000000       0.00000000 </v>
    <v>       0.50000000       0.50000000       0.50000000 </v>
   </varray>
  </structure>
  <varray name="forces" >
   <v>      -0.00000007       0.00000008      -0.06836278 </v>
   <v>      -0.00000008       0.00000007       0.06836201 </v>
   <v>       0.00000034      -0.00000034       0.00000039 </v>
   <v>      -0.00000020       0.00000020       0.00000038 </v>
  </varray>
  <varray name="stress" >
   <v>       4.31605613       0.00000978       0.00003062 </v>
   <v>       0.00000974       4.31602936       0.00003040 </v>
   <v>       0.00003063       0.00003062       4.38341500 </v>
  </varray>
  <energy>
   <i name="e_fr_energy">    -15.63281018 </i>
   <i name="e_wo_entrp">    -15.63212186 </i>
   <i name="e_0_energy">     -0.00137663 </i>
  </energy>
  <time name="totalsc">  866.91 1190.92</time>
  <eigenvalues>
   <array>
    <dimension dim="1">band</dimension>
    <dimension dim="2">kpoint</dimension>
    <dimension dim="3">spin</dimension>
    <field>eigene</field>
    <field>occ</field>
    <set>
     <set comment="spin 1">
      <set comment="kpoint 1">
       <r>  -20.9120    1.0000 </r>
       <r>  -20.9120    1.0000 </r>
       <r>  -20.9101    1.0000 </r>
       <r>  -20.9101    1.0000 </r>
       <r>  -17.9695    1.0000 </r>
       <r>  -17.9695    1.0000 </r>
       <r>  -17.9499    1.0000 </r>
       <r>  -17.9499    1.0000 </r>
       <r>  -17.9419    1.0000 </r>
       <r>  -17.9419    1.0000 </r>
       <r>   -9.1504    1.0000 </r>
       <r>   -9.1504    1.0000 </r>
       <r>   -7.3975    1.0000 </r>
       <r>   -7.3975    1.0000 </r>
       <r>   -3.5585    1.0000 </r>
       <r>   -3.5585    1.0000 </r>
       <r>    0.2791    1.0000 </r>
       <r>    0.2791    1.0000 </r>
       <r>    0.5681    1.0000 </r>
       <r>    0.5681    1.0000 </r>
       <r>    1.8525    1.0000 </r>
       <r>    1.8525    1.0000 </r>
       <r>    2.1674    1.0000 </r>
       <r>    2.1674    1.0000 </r>
       <r>    3.3229    0.0000 </r>
       <r>    3.3229    0.0000 </r>
       <r>    3.6240    0.0000 </r>
       <r>    3.6240    0.0000 </r>
       <r>    4.1706    0.0000 </r>
       <r>    4.1706    0.0000 </r>
       <r>    4.3914    0.0000 </r>
       <r>    4.3914    0.0000 </r>
       <r>    6.0596    0.0000 </r>
       <r>    6.0596    0.0000 </r>
       <r>    6.2755    0.0000 </r>
       <r>    6.2755    0.0000 </r>
       <r>    6.4151    0.0000 </r>
       <r>    6.4151    0.0000 </r>
       <r>    8.8916    0.0000 </r>
       <r>    8.8916    0.0000 </r>
       <r>   11.1467    0.0000 </r>
       <r>   11.1467    0.0000 </r>
       <r>   11.5923    0.0000 </r>
       <r>   11.5923    0.0000 </r>
       <r>   12.0716    0.0000 </r>
       <r>   12.0716    0.0000 </r>
       <r>   12.1914    0.0000 </r>
       <r>   12.1914    0.0000 </r>
      </set>
      <set comment="kpoint 2">
       <r>  -20.9129    1.0000 </r>
       <r>  -20.9121    1.0000 </r>
       <r>  -20.9102    1.0000 </r>
       <r>  -20.9083    1.0000 </r>
       <r>  -17.9710    1.0000 </r>
       <r>  -17.9663    1.0000 </r>
       <r>  -17.9506    1.0000 </r>
       <r>  -17.9492    1.0000 </r>
       <r>  -17.9426    1.0000 </r>
       <r>  -17.9412    1.0000 </r>
       <r>   -9.0323    1.0000 </r>
       <r>   -9.0321    1.0000 </r>
       <r>   -7.3945    1.0000 </r>
       <r>   -7.3905    1.0000 </r>
       <r>   -3.5541    1.0000 </r>
       <r>   -3.4598    1.0000 </r>
       <r>   -0.2740    1.0000 </r>
       <r>   -0.1096    1.0000 </r>
       <r>    0.4676    1.0000 </r>
       <r>    0.5104    1.0000 </r>
       <r>    0.7891    1.0000 </r>
       <r>    0.9220    1.0000 </r>
       <r>    2.0637    1.0000 </r>
       <r>    2.4069    1.0000 </r>
       <r>    3.0696    0.9981 </r>
       <r>    3.2157    0.1067 </r>
       <r>    3.7264    0.0000 </r>
       <r>    3.7627    0.0000 </r>
       <r>    4.4671    0.0000 </r>
       <r>    4.5430    0.0000 </r>
       <r>    5.2837    0.0000 </r>
       <r>    5.3265    0.0000 </r>
       <r>    6.1323    0.0000 </r>
       <r>    6.2106    0.0000 </r>
       <r>    6.3088    0.0000 </r>
       <r>    6.3593    0.0000 </r>
       <r>    6.9709    0.0000 </r>
       <r>    7.1693    0.0000 </r>
       <r>    9.6622    0.0000 </r>
       <r>    9.6778    0.0000 </r>
       <r>   10.2246    0.0000 </r>
       <r>   10.5076    0.0000 </r>
       <r>   10.6432    0.0000 </r>
       <r>   10.6905    0.0000 </r>
       <r>   11.4701    0.0000 </r>
       <r>   11.4879    0.0000 </r>
       <r>   11.6154    0.0000 </r>
       <r>   11.6766    0.0000 </r>
      </set>
      <set comment="kpoint 3">
       <r>  -20.9134    1.0000 </r>
       <r>  -20.9126    1.0000 </r>
       <r>  -20.9091    1.0000 </r>
       <r>  -20.9065    1.0000 </r>
       <r>  -17.9699    1.0000 </r>
       <r>  -17.9643    1.0000 </r>
       <r>  -17.9514    1.0000 </r>
       <r>  -17.9509    1.0000 </r>
       <r>  -17.9404    1.0000 </r>
       <r>  -17.9401    1.0000 </r>
       <r>   -8.6984    1.0000 </r>
       <r>   -8.6981    1.0000 </r>
       <r>   -7.4572    1.0000 </r>
       <r>   -7.4518    1.0000 </r>
       <r>   -3.4397    1.0000 </r>
       <r>   -3.2754    1.0000 </r>
       <r>   -1.0588    1.0000 </r>
       <r>   -1.0495    1.0000 </r>
       <r>   -0.6565    1.0000 </r>
       <r>   -0.1174    1.0000 </r>
       <r>    0.8092    1.0000 </r>
       <r>    0.8772    1.0000 </r>
       <r>    1.1612    1.0000 </r>
       <r>    1.5847    1.0000 </r>
       <r>    2.8040    1.0000 </r>
       <r>    2.9176    1.0000 </r>
       <r>    4.0616    0.0000 </r>
       <r>    4.1077    0.0000 </r>
       <r>    4.9245    0.0000 </r>
       <r>    5.0912    0.0000 </r>
       <r>    6.4543    0.0000 </r>
       <r>    6.5323    0.0000 </r>
       <r>    6.6965    0.0000 </r>
       <r>    6.7515    0.0000 </r>
       <r>    7.0956    0.0000 </r>
       <r>    7.1502    0.0000 </r>
       <r>    7.9975    0.0000 </r>
       <r>    8.3080    0.0000 </r>
       <r>    9.1234    0.0000 </r>
       <r>    9.3711    0.0000 </r>
       <r>    9.5426    0.0000 </r>
       <r>    9.6278    0.0000 </r>
       <r>   10.3250    0.0000 </r>
       <r>   10.5071    0.0000 </r>
       <r>   10.6560    0.0000 </r>
       <r>   10.7090    0.0000 </r>
       <r>   11.0975    0.0000 </r>
       <r>   11.1245    0.0000 </r>
      </set>
      <set comment="kpoint 4">
       <r>  -20.9135    1.0000 </r>
       <r>  -20.9132    1.0000 </r>
       <r>  -20.9074    1.0000 </r>
       <r>  -20.9062    1.0000 </r>
       <r>  -17.9676    1.0000 </r>
       <r>  -17.9652    1.0000 </r>
       <r>  -17.9524    1.0000 </r>
       <r>  -17.9523    1.0000 </r>
       <r>  -17.9383    1.0000 </r>
       <r>  -17.9380    1.0000 </r>
       <r>   -8.2279    1.0000 </r>
       <r>   -8.2270    1.0000 </r>
       <r>   -7.7255    1.0000 </r>
       <r>   -7.7224    1.0000 </r>
       <r>   -3.0806    1.0000 </r>
       <r>   -2.9259    1.0000 </r>
       <r>   -2.1938    1.0000 </r>
       <r>   -2.0937    1.0000 </r>
       <r>   -0.6077    1.0000 </r>
       <r>   -0.1261    1.0000 </r>
       <r>    0.1136    1.0000 </r>
       <r>    0.5675    1.0000 </r>
       <r>    1.1790    1.0000 </r>
       <r>    1.1907    1.0000 </r>
       <r>    2.5475    1.0000 </r>
       <r>    2.5858    1.0000 </r>
       <r>    4.3603    0.0000 </r>
       <r>    4.3811    0.0000 </r>
       <r>    5.3566    0.0000 </r>
       <r>    5.4484    0.0000 </r>
       <r>    7.1083    0.0000 </r>
       <r>    7.1646    0.0000 </r>
       <r>    7.3644    0.0000 </r>
       <r>    7.4185    0.0000 </r>
       <r>    7.5465    0.0000 </r>
       <r>    7.5833    0.0000 </r>
       <r>    7.9949    0.0000 </r>
       <r>    8.2789    0.0000 </r>
       <r>    8.5929    0.0000 </r>
       <r>    8.6453    0.0000 </r>
       <r>    8.7330    0.0000 </r>
       <r>    8.8468    0.0000 </r>
       <r>   10.4836    0.0000 </r>
       <r>   10.5301    0.0000 </r>
       <r>   10.5934    0.0000 </r>
       <r>   10.6225    0.0000 </r>
       <r>   11.0668    0.0000 </r>
       <r>   11.1100    0.0000 </r>
      </set>
      <set comment="kpoint 5">
       <r>  -20.9135    1.0000 </r>
       <r>  -20.9132    1.0000 </r>
       <r>  -20.9074    1.0000 </r>
       <r>  -20.9062    1.0000 </r>
       <r>  -17.9676    1.0000 </r>
       <r>  -17.9652    1.0000 </r>
       <r>  -17.9524    1.0000 </r>
       <r>  -17.9523    1.0000 </r>
       <r>  -17.9383    1.0000 </r>
       <r>  -17.9380    1.0000 </r>
       <r>   -8.2279    1.0000 </r>
       <r>   -8.2270    1.0000 </r>
       <r>   -7.7255    1.0000 </r>
       <r>   -7.7224    1.0000 </r>
       <r>   -3.0806    1.0000 </r>
       <r>   -2.9259    1.0000 </r>
       <r>   -2.1938    1.0000 </r>
       <r>   -2.0937    1.0000 </r>
       <r>   -0.6077    1.0000 </r>
       <r>   -0.1261    1.0000 </r>
       <r>    0.1136    1.0000 </r>
       <r>    0.5675    1.0000 </r>
       <r>    1.1790    1.0000 </r>
       <r>    1.1907    1.0000 </r>
       <r>    2.5475    1.0000 </r>
       <r>    2.5858    1.0000 </r>
       <r>    4.3603    0.0000 </r>
       <r>    4.3811    0.0000 </r>
       <r>    5.3566    0.0000 </r>
       <r>    5.4484    0.0000 </r>
       <r>    7.1083    0.0000 </r>
       <r>    7.1646    0.0000 </r>
       <r>    7.3644    0.0000 </r>
       <r>    7.4185    0.0000 </r>
       <r>    7.5465    0.0000 </r>
       <r>    7.5833    0.0000 </r>
       <r>    7.9949    0.0000 </r>
       <r>    8.2789    0.0000 </r>
       <r>    8.5929    0.0000 </r>
       <r>    8.6453    0.0000 </r>
       <r>    8.7330    0.0000 </r>
       <r>    8.8468    0.0000 </r>
       <r>   10.4836    0.0000 </r>
       <r>   10.5301    0.0000 </r>
       <r>   10.5934    0.0000 </r>
       <r>   10.6225    0.0000 </r>
       <r>   11.0668    0.0000 </r>
       <r>   11.1100    0.0000 </r>
      </set>
      <set comment="kpoint 6">
       <r>  -20.9134    1.0000 </r>
       <r>  -20.9126    1.0000 </r>
       <r>  -20.9091    1.0000 </r>
       <r>  -20.9065    1.0000 </r>
       <r>  -17.9699    1.0000 </r>
       <r>  -17.9643    1.0000 </r>
       <r>  -17.9514    1.0000 </r>
       <r>  -17.9509    1.0000 </r>
       <r>  -17.9404    1.0000 </r>
       <r>  -17.9401    1.0000 </r>
       <r>   -8.6984    1.0000 </r>
       <r>   -8.6981    1.0000 </r>
       <r>   -7.4572    1.0000 </r>
       <r>   -7.4518    1.0000 </r>
       <r>   -3.4397    1.0000 </r>
       <r>   -3.2754    1.0000 </r>
       <r>   -1.0588    1.0000 </r>
       <r>   -1.0495    1.0000 </r>
       <r>   -0.6565    1.0000 </r>
       <r>   -0.1174    1.0000 </r>
       <r>    0.8092    1.0000 </r>
       <r>    0.8772    1.0000 </r>
       <r>    1.1612    1.0000 </r>
       <r>    1.5847    1.0000 </r>
       <r>    2.8040    1.0000 </r>
       <r>    2.9176    1.0000 </r>
       <r>    4.0616    0.0000 </r>
       <r>    4.1077    0.0000 </r>
       <r>    4.9245    0.0000 </r>
       <r>    5.0912    0.0000 </r>
       <r>    6.4543    0.0000 </r>
       <r>    6.5323    0.0000 </r>
       <r>    6.6965    0.0000 </r>
       <r>    6.7515    0.0000 </r>
       <r>    7.0956    0.0000 </r>
       <r>    7.1502    0.0000 </r>
       <r>    7.9975    0.0000 </r>
       <r>    8.3080    0.0000 </r>
       <r>    9.1234    0.0000 </r>
       <r>    9.3711    0.0000 </r>
       <r>    9.5426    0.0000 </r>
       <r>    9.6278    0.0000 </r>
       <r>   10.3250    0.0000 </r>
       <r>   10.5071    0.0000 </r>
       <r>   10.6560    0.0000 </r>
       <r>   10.7090    0.0000 </r>
       <r>   11.0975    0.0000 </r>
       <r>   11.1245    0.0000 </r>
      </set>
      <set comment="kpoint 7">
       <r>  -20.9129    1.0000 </r>
       <r>  -20.9121    1.0000 </r>
       <r>  -20.9102    1.0000 </r>
       <r>  -20.9083    1.0000 </r>
       <r>  -17.9710    1.0000 </r>
       <r>  -17.9663    1.0000 </r>
       <r>  -17.9506    1.0000 </r>
       <r>  -17.9492    1.0000 </r>
       <r>  -17.9426    1.0000 </r>
       <r>  -17.9412    1.0000 </r>
       <r>   -9.0323    1.0000 </r>
       <r>   -9.0321    1.0000 </r>
       <r>   -7.3945    1.0000 </r>
       <r>   -7.3905    1.0000 </r>
       <r>   -3.5541    1.0000 </r>
       <r>   -3.4598    1.0000 </r>
       <r>   -0.2740    1.0000 </r>
       <r>   -0.1096    1.0000 </r>
       <r>    0.4676    1.0000 </r>
       <r>    0.5104    1.0000 </r>
       <r>    0.7891    1.0000 </r>
       <r>    0.9220    1.0000 </r>
       <r>    2.0637    1.0000 </r>
       <r>    2.4069    1.0000 </r>
       <r>    3.0696    0.9981 </r>
       <r>    3.2157    0.1067 </r>
       <r>    3.7264    0.0000 </r>
       <r>    3.7627    0.0000 </r>
       <r>    4.4671    0.0000 </r>
       <r>    4.5430    0.0000 </r>
       <r>    5.2837    0.0000 </r>
       <r>    5.3265    0.0000 </r>
       <r>    6.1323    0.0000 </r>
       <r>    6.2106    0.0000 </r>
       <r>    6.3088    0.0000 </r>
       <r>    6.3593    0.0000 </r>
       <r>    6.9709    0.0000 </r>
       <r>    7.1693    0.0000 </r>
       <r>    9.6622    0.0000 </r>
       <r>    9.6778    0.0000 </r>
       <r>   10.2246    0.0000 </r>
       <r>   10.5076    0.0000 </r>
       <r>   10.6432    0.0000 </r>
       <r>   10.6905    0.0000 </r>
       <r>   11.4701    0.0000 </r>
       <r>   11.4879    0.0000 </r>
       <r>   11.6154    0.0000 </r>
       <r>   11.6766    0.0000 </r>
      </set>
      <set comment="kpoint 8">
       <r>  -20.9129    1.0000 </r>
       <r>  -20.9121    1.0000 </r>
       <r>  -20.9102    1.0000 </r>
       <r>  -20.9083    1.0000 </r>
       <r>  -17.9710    1.0000 </r>
       <r>  -17.9663    1.0000 </r>
       <r>  -17.9506    1.0000 </r>
       <r>  -17.9492    1.0000 </r>
       <r>  -17.9426    1.0000 </r>
       <r>  -17.9412    1.0000 </r>
       <r>   -9.0323    1.0000 </r>
       <r>   -9.0321    1.0000 </r>
       <r>   -7.3945    1.0000 </r>
       <r>   -7.3905    1.0000 </r>
       <r>   -3.5541    1.0000 </r>
       <r>   -3.4598    1.0000 </r>
       <r>   -0.2740    1.0000 </r>
       <r>   -0.1096    1.0000 </r>
       <r>    0.4676    1.0000 </r>
       <r>    0.5104    1.0000 </r>
       <r>    0.7891    1.0000 </r>
       <r>    0.9220    1.0000 </r>
       <r>    2.0637    1.0000 </r>
       <r>    2.4069    1.0000 </r>
       <r>    3.0696    0.9981 </r>
       <r>    3.2157    0.1067 </r>
       <r>    3.7264    0.0000 </r>
       <r>    3.7627    0.0000 </r>
       <r>    4.4671    0.0000 </r>
       <r>    4.5430    0.0000 </r>
       <r>    5.2837    0.0000 </r>
       <r>    5.3265    0.0000 </r>
       <r>    6.1323    0.0000 </r>
       <r>    6.2106    0.0000 </r>
       <r>    6.3088    0.0000 </r>
       <r>    6.3593    0.0000 </r>
       <r>    6.9709    0.0000 </r>
       <r>    7.1693    0.0000 </r>
       <r>    9.6622    0.0000 </r>
       <r>    9.6778    0.0000 </r>
       <r>   10.2246    0.0000 </r>
       <r>   10.5076    0.0000 </r>
       <r>   10.6432    0.0000 </r>
       <r>   10.6905    0.0000 </r>
       <r>   11.4701    0.0000 </r>
       <r>   11.4879    0.0000 </r>
       <r>   11.6154    0.0000 </r>
       <r>   11.6766    0.0000 </r>
      </set>
      <set comment="kpoint 9">
       <r>  -20.9134    1.0000 </r>
       <r>  -20.9124    1.0000 </r>
       <r>  -20.9095    1.0000 </r>
       <r>  -20.9074    1.0000 </r>
       <r>  -17.9712    1.0000 </r>
       <r>  -17.9646    1.0000 </r>
       <r>  -17.9507    1.0000 </r>
       <r>  -17.9485    1.0000 </r>
       <r>  -17.9433    1.0000 </r>
       <r>  -17.9408    1.0000 </r>
       <r>   -8.9153    1.0000 </r>
       <r>   -8.9151    1.0000 </r>
       <r>   -7.3802    1.0000 </r>
       <r>   -7.3749    1.0000 </r>
       <r>   -3.5363    1.0000 </r>
       <r>   -3.4068    1.0000 </r>
       <r>   -0.3066    1.0000 </r>
       <r>   -0.2366    1.0000 </r>
       <r>   -0.2039    1.0000 </r>
       <r>    0.0993    1.0000 </r>
       <r>    0.5178    1.0000 </r>
       <r>    0.5838    1.0000 </r>
       <r>    1.9437    1.0000 </r>
       <r>    1.9633    1.0000 </r>
       <r>    2.5291    1.0000 </r>
       <r>    2.6821    1.0000 </r>
       <r>    4.3763    0.0000 </r>
       <r>    4.4106    0.0000 </r>
       <r>    5.1162    0.0000 </r>
       <r>    5.3624    0.0000 </r>
       <r>    5.3783    0.0000 </r>
       <r>    5.3852    0.0000 </r>
       <r>    5.8137    0.0000 </r>
       <r>    5.8220    0.0000 </r>
       <r>    7.1547    0.0000 </r>
       <r>    7.2843    0.0000 </r>
       <r>    7.3692    0.0000 </r>
       <r>    7.6518    0.0000 </r>
       <r>    9.3177    0.0000 </r>
       <r>    9.4110    0.0000 </r>
       <r>    9.7551    0.0000 </r>
       <r>    9.9835    0.0000 </r>
       <r>   10.2309    0.0000 </r>
       <r>   10.2361    0.0000 </r>
       <r>   10.4048    0.0000 </r>
       <r>   10.4123    0.0000 </r>
       <r>   12.2834    0.0000 </r>
       <r>   12.3627    0.0000 </r>
      </set>
      <set comment="kpoint 10">
       <r>  -20.9140    1.0000 </r>
       <r>  -20.9127    1.0000 </r>
       <r>  -20.9084    1.0000 </r>
       <r>  -20.9058    1.0000 </r>
       <r>  -17.9703    1.0000 </r>
       <r>  -17.9633    1.0000 </r>
       <r>  -17.9514    1.0000 </r>
       <r>  -17.9492    1.0000 </r>
       <r>  -17.9416    1.0000 </r>
       <r>  -17.9395    1.0000 </r>
       <r>   -8.5859    1.0000 </r>
       <r>   -8.5856    1.0000 </r>
       <r>   -7.4132    1.0000 </r>
       <r>   -7.4072    1.0000 </r>
       <r>   -3.4581    1.0000 </r>
       <r>   -3.2841    1.0000 </r>
       <r>   -1.2484    1.0000 </r>
       <r>   -1.2312    1.0000 </r>
       <r>   -0.6343    1.0000 </r>
       <r>   -0.1387    1.0000 </r>
       <r>    0.3553    1.0000 </r>
       <r>    0.4603    1.0000 </r>
       <r>    1.1492    1.0000 </r>
       <r>    1.5415    1.0000 </r>
       <r>    1.9206    1.0000 </r>
       <r>    2.3221    1.0000 </r>
       <r>    4.6880    0.0000 </r>
       <r>    4.8479    0.0000 </r>
       <r>    5.3203    0.0000 </r>
       <r>    5.3528    0.0000 </r>
       <r>    5.7367    0.0000 </r>
       <r>    5.9927    0.0000 </r>
       <r>    7.2101    0.0000 </r>
       <r>    7.3409    0.0000 </r>
       <r>    7.7470    0.0000 </r>
       <r>    7.8398    0.0000 </r>
       <r>    8.0815    0.0000 </r>
       <r>    8.1691    0.0000 </r>
       <r>    8.3852    0.0000 </r>
       <r>    8.6503    0.0000 </r>
       <r>    8.7279    0.0000 </r>
       <r>    8.7999    0.0000 </r>
       <r>    9.9562    0.0000 </r>
       <r>   10.0968    0.0000 </r>
       <r>   11.4356    0.0000 </r>
       <r>   11.6480    0.0000 </r>
       <r>   11.7611    0.0000 </r>
       <r>   11.9358    0.0000 </r>
      </set>
      <set comment="kpoint 11">
       <r>  -20.9143    1.0000 </r>
       <r>  -20.9129    1.0000 </r>
       <r>  -20.9070    1.0000 </r>
       <r>  -20.9052    1.0000 </r>
       <r>  -17.9688    1.0000 </r>
       <r>  -17.9642    1.0000 </r>
       <r>  -17.9525    1.0000 </r>
       <r>  -17.9499    1.0000 </r>
       <r>  -17.9394    1.0000 </r>
       <r>  -17.9374    1.0000 </r>
       <r>   -8.1279    1.0000 </r>
       <r>   -8.1269    1.0000 </r>
       <r>   -7.6433    1.0000 </r>
       <r>   -7.6400    1.0000 </r>
       <r>   -3.1540    1.0000 </r>
       <r>   -2.9980    1.0000 </r>
       <r>   -2.3416    1.0000 </r>
       <r>   -2.2496    1.0000 </r>
       <r>   -0.5083    1.0000 </r>
       <r>   -0.0373    1.0000 </r>
       <r>    0.1695    1.0000 </r>
       <r>    0.5895    1.0000 </r>
       <r>    0.7236    1.0000 </r>
       <r>    0.7835    1.0000 </r>
       <r>    1.6464    1.0000 </r>
       <r>    2.1163    1.0000 </r>
       <r>    5.0065    0.0000 </r>
       <r>    5.1307    0.0000 </r>
       <r>    5.7277    0.0000 </r>
       <r>    5.7949    0.0000 </r>
       <r>    5.8556    0.0000 </r>
       <r>    6.1447    0.0000 </r>
       <r>    6.7083    0.0000 </r>
       <r>    7.0095    0.0000 </r>
       <r>    7.5642    0.0000 </r>
       <r>    7.6381    0.0000 </r>
       <r>    7.8386    0.0000 </r>
       <r>    7.9092    0.0000 </r>
       <r>    8.8052    0.0000 </r>
       <r>    8.9378    0.0000 </r>
       <r>    9.6428    0.0000 </r>
       <r>    9.9124    0.0000 </r>
       <r>   10.3640    0.0000 </r>
       <r>   10.5201    0.0000 </r>
       <r>   11.5902    0.0000 </r>
       <r>   11.7393    0.0000 </r>
       <r>   11.9423    0.0000 </r>
       <r>   11.9886    0.0000 </r>
      </set>
      <set comment="kpoint 12">
       <r>  -20.9143    1.0000 </r>
       <r>  -20.9130    1.0000 </r>
       <r>  -20.9070    1.0000 </r>
       <r>  -20.9052    1.0000 </r>
       <r>  -17.9688    1.0000 </r>
       <r>  -17.9642    1.0000 </r>
       <r>  -17.9525    1.0000 </r>
       <r>  -17.9499    1.0000 </r>
       <r>  -17.9394    1.0000 </r>
       <r>  -17.9374    1.0000 </r>
       <r>   -8.1279    1.0000 </r>
       <r>   -8.1269    1.0000 </r>
       <r>   -7.6433    1.0000 </r>
       <r>   -7.6400    1.0000 </r>
       <r>   -3.1540    1.0000 </r>
       <r>   -2.9980    1.0000 </r>
       <r>   -2.3416    1.0000 </r>
       <r>   -2.2496    1.0000 </r>
       <r>   -0.5083    1.0000 </r>
       <r>   -0.0374    1.0000 </r>
       <r>    0.1695    1.0000 </r>
       <r>    0.5895    1.0000 </r>
       <r>    0.7236    1.0000 </r>
       <r>    0.7835    1.0000 </r>
       <r>    1.6464    1.0000 </r>
       <r>    2.1163    1.0000 </r>
       <r>    5.0065    0.0000 </r>
       <r>    5.1307    0.0000 </r>
       <r>    5.7277    0.0000 </r>
       <r>    5.7949    0.0000 </r>
       <r>    5.8556    0.0000 </r>
       <r>    6.1447    0.0000 </r>
       <r>    6.7083    0.0000 </r>
       <r>    7.0095    0.0000 </r>
       <r>    7.5642    0.0000 </r>
       <r>    7.6381    0.0000 </r>
       <r>    7.8386    0.0000 </r>
       <r>    7.9092    0.0000 </r>
       <r>    8.8052    0.0000 </r>
       <r>    8.9378    0.0000 </r>
       <r>    9.6428    0.0000 </r>
       <r>    9.9124    0.0000 </r>
       <r>   10.3640    0.0000 </r>
       <r>   10.5201    0.0000 </r>
       <r>   11.5902    0.0000 </r>
       <r>   11.7393    0.0000 </r>
       <r>   11.9423    0.0000 </r>
       <r>   11.9886    0.0000 </r>
      </set>
      <set comment="kpoint 13">
       <r>  -20.9140    1.0000 </r>
       <r>  -20.9127    1.0000 </r>
       <r>  -20.9084    1.0000 </r>
       <r>  -20.9058    1.0000 </r>
       <r>  -17.9703    1.0000 </r>
       <r>  -17.9633    1.0000 </r>
       <r>  -17.9514    1.0000 </r>
       <r>  -17.9492    1.0000 </r>
       <r>  -17.9416    1.0000 </r>
       <r>  -17.9395    1.0000 </r>
       <r>   -8.5859    1.0000 </r>
       <r>   -8.5856    1.0000 </r>
       <r>   -7.4132    1.0000 </r>
       <r>   -7.4072    1.0000 </r>
       <r>   -3.4581    1.0000 </r>
       <r>   -3.2841    1.0000 </r>
       <r>   -1.2484    1.0000 </r>
       <r>   -1.2312    1.0000 </r>
       <r>   -0.6343    1.0000 </r>
       <r>   -0.1387    1.0000 </r>
       <r>    0.3553    1.0000 </r>
       <r>    0.4603    1.0000 </r>
       <r>    1.1492    1.0000 </r>
       <r>    1.5415    1.0000 </r>
       <r>    1.9206    1.0000 </r>
       <r>    2.3221    1.0000 </r>
       <r>    4.6880    0.0000 </r>
       <r>    4.8479    0.0000 </r>
       <r>    5.3203    0.0000 </r>
       <r>    5.3528    0.0000 </r>
       <r>    5.7367    0.0000 </r>
       <r>    5.9927    0.0000 </r>
       <r>    7.2101    0.0000 </r>
       <r>    7.3409    0.0000 </r>
       <r>    7.7470    0.0000 </r>
       <r>    7.8398    0.0000 </r>
       <r>    8.0815    0.0000 </r>
       <r>    8.1691    0.0000 </r>
       <r>    8.3852    0.0000 </r>
       <r>    8.6503    0.0000 </r>
       <r>    8.7279    0.0000 </r>
       <r>    8.7999    0.0000 </r>
       <r>    9.9562    0.0000 </r>
       <r>   10.0968    0.0000 </r>
       <r>   11.4356    0.0000 </r>
       <r>   11.6480    0.0000 </r>
       <r>   11.7611    0.0000 </r>
       <r>   11.9358    0.0000 </r>
      </set>
      <set comment="kpoint 14">
       <r>  -20.9134    1.0000 </r>
       <r>  -20.9124    1.0000 </r>
       <r>  -20.9095    1.0000 </r>
       <r>  -20.9074    1.0000 </r>
       <r>  -17.9712    1.0000 </r>
       <r>  -17.9646    1.0000 </r>
       <r>  -17.9507    1.0000 </r>
       <r>  -17.9485    1.0000 </r>
       <r>  -17.9433    1.0000 </r>
       <r>  -17.9408    1.0000 </r>
       <r>   -8.9153    1.0000 </r>
       <r>   -8.9151    1.0000 </r>
       <r>   -7.3802    1.0000 </r>
       <r>   -7.3749    1.0000 </r>
       <r>   -3.5363    1.0000 </r>
       <r>   -3.4068    1.0000 </r>
       <r>   -0.3066    1.0000 </r>
       <r>   -0.2366    1.0000 </r>
       <r>   -0.2039    1.0000 </r>
       <r>    0.0993    1.0000 </r>
       <r>    0.5178    1.0000 </r>
       <r>    0.5838    1.0000 </r>
       <r>    1.9437    1.0000 </r>
       <r>    1.9633    1.0000 </r>
       <r>    2.5291    1.0000 </r>
       <r>    2.6821    1.0000 </r>
       <r>    4.3763    0.0000 </r>
       <r>    4.4106    0.0000 </r>
       <r>    5.1162    0.0000 </r>
       <r>    5.3624    0.0000 </r>
       <r>    5.3783    0.0000 </r>
       <r>    5.3852    0.0000 </r>
       <r>    5.8137    0.0000 </r>
       <r>    5.8220    0.0000 </r>
       <r>    7.1547    0.0000 </r>
       <r>    7.2843    0.0000 </r>
       <r>    7.3692    0.0000 </r>
       <r>    7.6518    0.0000 </r>
       <r>    9.3177    0.0000 </r>
       <r>    9.4110    0.0000 </r>
       <r>    9.7551    0.0000 </r>
       <r>    9.9835    0.0000 </r>
       <r>   10.2309    0.0000 </r>
       <r>   10.2361    0.0000 </r>
       <r>   10.4048    0.0000 </r>
       <r>   10.4123    0.0000 </r>
       <r>   12.2834    0.0000 </r>
       <r>   12.3646    0.0000 </r>
      </set>
      <set comment="kpoint 15">
       <r>  -20.9134    1.0000 </r>
       <r>  -20.9126    1.0000 </r>
       <r>  -20.9091    1.0000 </r>
       <r>  -20.9065    1.0000 </r>
       <r>  -17.9699    1.0000 </r>
       <r>  -17.9643    1.0000 </r>
       <r>  -17.9514    1.0000 </r>
       <r>  -17.9509    1.0000 </r>
       <r>  -17.9404    1.0000 </r>
       <r>  -17.9401    1.0000 </r>
       <r>   -8.6984    1.0000 </r>
       <r>   -8.6981    1.0000 </r>
       <r>   -7.4572    1.0000 </r>
       <r>   -7.4518    1.0000 </r>
       <r>   -3.4397    1.0000 </r>
       <r>   -3.2754    1.0000 </r>
       <r>   -1.0588    1.0000 </r>
       <r>   -1.0495    1.0000 </r>
       <r>   -0.6565    1.0000 </r>
       <r>   -0.1174    1.0000 </r>
       <r>    0.8092    1.0000 </r>
       <r>    0.8772    1.0000 </r>
       <r>    1.1612    1.0000 </r>
       <r>    1.5847    1.0000 </r>
       <r>    2.8040    1.0000 </r>
       <r>    2.9176    1.0000 </r>
       <r>    4.0616    0.0000 </r>
       <r>    4.1077    0.0000 </r>
       <r>    4.9245    0.0000 </r>
       <r>    5.0912    0.0000 </r>
       <r>    6.4543    0.0000 </r>
       <r>    6.5323    0.0000 </r>
       <r>    6.6965    0.0000 </r>
       <r>    6.7515    0.0000 </r>
       <r>    7.0956    0.0000 </r>
       <r>    7.1502    0.0000 </r>
       <r>    7.9975    0.0000 </r>
       <r>    8.3080    0.0000 </r>
       <r>    9.1234    0.0000 </r>
       <r>    9.3711    0.0000 </r>
       <r>    9.5426    0.0000 </r>
       <r>    9.6278    0.0000 </r>
       <r>   10.3250    0.0000 </r>
       <r>   10.5071    0.0000 </r>
       <r>   10.6560    0.0000 </r>
       <r>   10.7090    0.0000 </r>
       <r>   11.0975    0.0000 </r>
       <r>   11.1245    0.0000 </r>
      </set>
      <set comment="kpoint 16">
       <r>  -20.9140    1.0000 </r>
       <r>  -20.9127    1.0000 </r>
       <r>  -20.9084    1.0000 </r>
       <r>  -20.9058    1.0000 </r>
       <r>  -17.9703    1.0000 </r>
       <r>  -17.9633    1.0000 </r>
       <r>  -17.9514    1.0000 </r>
       <r>  -17.9492    1.0000 </r>
       <r>  -17.9416    1.0000 </r>
       <r>  -17.9395    1.0000 </r>
       <r>   -8.5859    1.0000 </r>
       <r>   -8.5856    1.0000 </r>
       <r>   -7.4132    1.0000 </r>
       <r>   -7.4072    1.0000 </r>
       <r>   -3.4581    1.0000 </r>
       <r>   -3.2841    1.0000 </r>
       <r>   -1.2484    1.0000 </r>
       <r>   -1.2312    1.0000 </r>
       <r>   -0.6343    1.0000 </r>
       <r>   -0.1387    1.0000 </r>
       <r>    0.3553    1.0000 </r>
       <r>    0.4603    1.0000 </r>
       <r>    1.1492    1.0000 </r>
       <r>    1.5415    1.0000 </r>
       <r>    1.9206    1.0000 </r>
       <r>    2.3221    1.0000 </r>
       <r>    4.6880    0.0000 </r>
       <r>    4.8479    0.0000 </r>
       <r>    5.3203    0.0000 </r>
       <r>    5.3528    0.0000 </r>
       <r>    5.7367    0.0000 </r>
       <r>    5.9927    0.0000 </r>
       <r>    7.2101    0.0000 </r>
       <r>    7.3409    0.0000 </r>
       <r>    7.7470    0.0000 </r>
       <r>    7.8398    0.0000 </r>
       <r>    8.0815    0.0000 </r>
       <r>    8.1691    0.0000 </r>
       <r>    8.3852    0.0000 </r>
       <r>    8.6503    0.0000 </r>
       <r>    8.7279    0.0000 </r>
       <r>    8.7999    0.0000 </r>
       <r>    9.9562    0.0000 </r>
       <r>   10.0968    0.0000 </r>
       <r>   11.4356    0.0000 </r>
       <r>   11.6480    0.0000 </r>
       <r>   11.7611    0.0000 </r>
       <r>   11.9358    0.0000 </r>
      </set>
      <set comment="kpoint 17">
       <r>  -20.9146    1.0000 </r>
       <r>  -20.9130    1.0000 </r>
       <r>  -20.9072    1.0000 </r>
       <r>  -20.9043    1.0000 </r>
       <r>  -17.9702    1.0000 </r>
       <r>  -17.9632    1.0000 </r>
       <r>  -17.9510    1.0000 </r>
       <r>  -17.9482    1.0000 </r>
       <r>  -17.9402    1.0000 </r>
       <r>  -17.9385    1.0000 </r>
       <r>   -8.2738    1.0000 </r>
       <r>   -8.2737    1.0000 </r>
       <r>   -7.3527    1.0000 </r>
       <r>   -7.3462    1.0000 </r>
       <r>   -3.5066    1.0000 </r>
       <r>   -3.3339    1.0000 </r>
       <r>   -1.9381    1.0000 </r>
       <r>   -1.9265    1.0000 </r>
       <r>   -0.5107    1.0000 </r>
       <r>   -0.1289    1.0000 </r>
       <r>    0.0820    1.0000 </r>
       <r>    0.1363    1.0000 </r>
       <r>    1.0271    1.0000 </r>
       <r>    1.0665    1.0000 </r>
       <r>    1.4466    1.0000 </r>
       <r>    1.6522    1.0000 </r>
       <r>    4.3688    0.0000 </r>
       <r>    4.3828    0.0000 </r>
       <r>    5.1931    0.0000 </r>
       <r>    5.2020    0.0000 </r>
       <r>    6.1044    0.0000 </r>
       <r>    6.6440    0.0000 </r>
       <r>    6.8055    0.0000 </r>
       <r>    6.8131    0.0000 </r>
       <r>    7.9030    0.0000 </r>
       <r>    7.9239    0.0000 </r>
       <r>    8.1893    0.0000 </r>
       <r>    8.2046    0.0000 </r>
       <r>    9.0190    0.0000 </r>
       <r>    9.1665    0.0000 </r>
       <r>    9.4527    0.0000 </r>
       <r>    9.8929    0.0000 </r>
       <r>   10.1033    0.0000 </r>
       <r>   10.2109    0.0000 </r>
       <r>   12.3237    0.0000 </r>
       <r>   12.7617    0.0000 </r>
       <r>   12.7942    0.0000 </r>
       <r>   12.9964    0.0000 </r>
      </set>
      <set comment="kpoint 18">
       <r>  -20.9148    1.0000 </r>
       <r>  -20.9134    1.0000 </r>
       <r>  -20.9059    1.0000 </r>
       <r>  -20.9037    1.0000 </r>
       <r>  -17.9694    1.0000 </r>
       <r>  -17.9647    1.0000 </r>
       <r>  -17.9512    1.0000 </r>
       <r>  -17.9483    1.0000 </r>
       <r>  -17.9380    1.0000 </r>
       <r>  -17.9366    1.0000 </r>
       <r>   -7.8651    1.0000 </r>
       <r>   -7.8639    1.0000 </r>
       <r>   -7.4471    1.0000 </r>
       <r>   -7.4436    1.0000 </r>
       <r>   -3.3880    1.0000 </r>
       <r>   -3.2559    1.0000 </r>
       <r>   -2.7965    1.0000 </r>
       <r>   -2.7405    1.0000 </r>
       <r>   -0.2548    1.0000 </r>
       <r>    0.0578    1.0000 </r>
       <r>    0.1936    1.0000 </r>
       <r>    0.2835    1.0000 </r>
       <r>    0.5204    1.0000 </r>
       <r>    0.8623    1.0000 </r>
       <r>    0.9333    1.0000 </r>
       <r>    1.4045    1.0000 </r>
       <r>    4.4468    0.0000 </r>
       <r>    4.5646    0.0000 </r>
       <r>    4.9077    0.0000 </r>
       <r>    4.9265    0.0000 </r>
       <r>    5.2493    0.0000 </r>
       <r>    5.6589    0.0000 </r>
       <r>    5.8476    0.0000 </r>
       <r>    5.8715    0.0000 </r>
       <r>    8.2227    0.0000 </r>
       <r>    8.2322    0.0000 </r>
       <r>    9.4964    0.0000 </r>
       <r>    9.7488    0.0000 </r>
       <r>    9.9467    0.0000 </r>
       <r>   10.0700    0.0000 </r>
       <r>   10.2355    0.0000 </r>
       <r>   10.4002    0.0000 </r>
       <r>   11.1257    0.0000 </r>
       <r>   11.6770    0.0000 </r>
       <r>   12.4573    0.0000 </r>
       <r>   12.7226    0.0000 </r>
       <r>   12.8935    0.0000 </r>
       <r>   12.9242    0.0000 </r>
      </set>
      <set comment="kpoint 19">
       <r>  -20.9148    1.0000 </r>
       <r>  -20.9134    1.0000 </r>
       <r>  -20.9059    1.0000 </r>
       <r>  -20.9037    1.0000 </r>
       <r>  -17.9694    1.0000 </r>
       <r>  -17.9647    1.0000 </r>
       <r>  -17.9512    1.0000 </r>
       <r>  -17.9483    1.0000 </r>
       <r>  -17.9380    1.0000 </r>
       <r>  -17.9366    1.0000 </r>
       <r>   -7.8651    1.0000 </r>
       <r>   -7.8639    1.0000 </r>
       <r>   -7.4471    1.0000 </r>
       <r>   -7.4436    1.0000 </r>
       <r>   -3.3880    1.0000 </r>
       <r>   -3.2559    1.0000 </r>
       <r>   -2.7965    1.0000 </r>
       <r>   -2.7405    1.0000 </r>
       <r>   -0.2548    1.0000 </r>
       <r>    0.0578    1.0000 </r>
       <r>    0.1936    1.0000 </r>
       <r>    0.2835    1.0000 </r>
       <r>    0.5204    1.0000 </r>
       <r>    0.8623    1.0000 </r>
       <r>    0.9333    1.0000 </r>
       <r>    1.4045    1.0000 </r>
       <r>    4.4468    0.0000 </r>
       <r>    4.5646    0.0000 </r>
       <r>    4.9077    0.0000 </r>
       <r>    4.9265    0.0000 </r>
       <r>    5.2493    0.0000 </r>
       <r>    5.6589    0.0000 </r>
       <r>    5.8476    0.0000 </r>
       <r>    5.8715    0.0000 </r>
       <r>    8.2227    0.0000 </r>
       <r>    8.2322    0.0000 </r>
       <r>    9.4964    0.0000 </r>
       <r>    9.7488    0.0000 </r>
       <r>    9.9467    0.0000 </r>
       <r>   10.0700    0.0000 </r>
       <r>   10.2355    0.0000 </r>
       <r>   10.4002    0.0000 </r>
       <r>   11.1257    0.0000 </r>
[...]
       <r>     4.5341     0.0000     0.0000 </r>
       <r>     4.6605     0.0000     0.0000 </r>
       <r>     4.7868     0.0000     0.0000 </r>
       <r>     4.9132     0.0000     0.0000 </r>
       <r>     5.0396     0.0000     0.0000 </r>
       <r>     5.1660     0.0000     0.0000 </r>
       <r>     5.2924     0.0000     0.0000 </r>
       <r>     5.4188     0.0000     0.0000 </r>
       <r>     5.5451     0.0000     0.0000 </r>
       <r>     5.6715     0.0000     0.0000 </r>
       <r>     5.7979     0.0000     0.0000 </r>
       <r>     5.9243     0.0000     0.0000 </r>
       <r>     6.0507     0.0000     0.0000 </r>
       <r>     6.1770     0.0000     0.0000 </r>
       <r>     6.3034     0.0000     0.0000 </r>
       <r>     6.4298     0.0000     0.0000 </r>
       <r>     6.5562     0.0000     0.0000 </r>
       <r>     6.6826     0.0000     0.0000 </r>
       <r>     6.8090     0.0000     0.0000 </r>
       <r>     6.9353     0.0000     0.0000 </r>
       <r>     7.0617     0.0000     0.0000 </r>
       <r>     7.1881     0.0000     0.0000 </r>
       <r>     7.3145     0.0000     0.0000 </r>
       <r>     7.4409     0.0000     0.0000 </r>
       <r>     7.5673     0.0000     0.0000 </r>
       <r>     7.6936     0.0000     0.0000 </r>
       <r>     7.8200     0.0000     0.0000 </r>
       <r>     7.9464     0.0000     0.0000 </r>
       <r>     8.0728     0.0000     0.0000 </r>
       <r>     8.1992     0.0000     0.0000 </r>
       <r>     8.3256     0.0000     0.0000 </r>
       <r>     8.4519     0.0000     0.0000 </r>
       <r>     8.5783     0.0000     0.0000 </r>
       <r>     8.7047     0.0000     0.0000 </r>
       <r>     8.8311     0.0000     0.0000 </r>
       <r>     8.9575     0.0000     0.0000 </r>
       <r>     9.0838     0.0000     0.0000 </r>
       <r>     9.2102     0.0000     0.0000 </r>
       <r>     9.3366     0.0000     0.0000 </r>
       <r>     9.4630     0.0000     0.0000 </r>
       <r>     9.5894     0.0000     0.0000 </r>
       <r>     9.7158     0.0000     0.0000 </r>
       <r>     9.8421     0.0000     0.0000 </r>
       <r>     9.9685     0.0000     0.0000 </r>
       <r>    10.0949     0.0000     0.0000 </r>
       <r>    10.2213     0.0000     0.0000 </r>
       <r>    10.3477     0.0000     0.0000 </r>
       <r>    10.4741     0.0000     0.0000 </r>
       <r>    10.6004     0.0000     0.0000 </r>
       <r>    10.7268     0.0000     0.0000 </r>
       <r>    10.8532     0.0000     0.0000 </r>
       <r>    10.9796     0.0000     0.0000 </r>
       <r>    11.1060     0.0000     0.0000 </r>
       <r>    11.2324     0.0000     0.0000 </r>
       <r>    11.3587     0.0000     0.0000 </r>
       <r>    11.4851     0.0000     0.0000 </r>
       <r>    11.6115     0.0000     0.0000 </r>
       <r>    11.7379     0.0000     0.0000 </r>
       <r>    11.8643     0.0000     0.0000 </r>
       <r>    11.9906     0.0000     0.0000 </r>
       <r>    12.1170     0.0000     0.0000 </r>
       <r>    12.2434     0.0000     0.0000 </r>
       <r>    12.3698     0.0000     0.0000 </r>
       <r>    12.4962     0.0000     0.0000 </r>
       <r>    12.6226     0.0000     0.0000 </r>
       <r>    12.7489     0.0000     0.0000 </r>
       <r>    12.8753     0.0000     0.0000 </r>
       <r>    13.0017     0.0000     0.0000 </r>
       <r>    13.1281     0.0000     0.0000 </r>
       <r>    13.2545     0.0000     0.0000 </r>
       <r>    13.3809     0.0000     0.0000 </r>
       <r>    13.5072     0.0000     0.0000 </r>
       <r>    13.6336     0.0000     0.0000 </r>
       <r>    13.7600     0.0000     0.0000 </r>
       <r>    13.8864     0.0000     0.0000 </r>
       <r>    14.0128     0.0000     0.0000 </r>
       <r>    14.1391     0.0000     0.0000 </r>
       <r>    14.2655     0.0000     0.0000 </r>
       <r>    14.3919     0.0000     0.0000 </r>
       <r>    14.5183     0.0000     0.0000 </r>
       <r>    14.6447     0.0000     0.0000 </r>
       <r>    14.7711     0.0000     0.0000 </r>
       <r>    14.8974     0.0000     0.0000 </r>
       <r>    15.0238     0.0000     0.0000 </r>
       <r>    15.1502     0.0000     0.0000 </r>
       <r>    15.2766     0.0000     0.0000 </r>
      </set>
      <set comment="spin 4">
       <r>   -22.6382     0.0000     0.0000 </r>
       <r>   -22.5118     0.0000     0.0000 </r>
       <r>   -22.3854     0.0000     0.0000 </r>
       <r>   -22.2590     0.0000     0.0000 </r>
       <r>   -22.1326     0.0000     0.0000 </r>
       <r>   -22.0063     0.0000     0.0000 </r>
       <r>   -21.8799     0.0000     0.0000 </r>
       <r>   -21.7535     0.0000     0.0000 </r>
       <r>   -21.6271     0.0000     0.0000 </r>
       <r>   -21.5007     0.0000     0.0000 </r>
       <r>   -21.3743     0.0000     0.0000 </r>
       <r>   -21.2480     0.0000     0.0000 </r>
       <r>   -21.1216     0.0000     0.0000 </r>
       <r>   -20.9952     0.0000     0.0000 </r>
       <r>   -20.8688     0.0000     0.0000 </r>
       <r>   -20.7424     0.0000     0.0000 </r>
       <r>   -20.6160     0.0000     0.0000 </r>
       <r>   -20.4897     0.0000     0.0000 </r>
       <r>   -20.3633     0.0000     0.0000 </r>
       <r>   -20.2369     0.0000     0.0000 </r>
       <r>   -20.1105     0.0000     0.0000 </r>
       <r>   -19.9841     0.0000     0.0000 </r>
       <r>   -19.8578     0.0000     0.0000 </r>
       <r>   -19.7314     0.0000     0.0000 </r>
       <r>   -19.6050     0.0000     0.0000 </r>
       <r>   -19.4786     0.0000     0.0000 </r>
       <r>   -19.3522     0.0000     0.0000 </r>
       <r>   -19.2258     0.0000     0.0000 </r>
       <r>   -19.0995     0.0000     0.0000 </r>
       <r>   -18.9731     0.0000     0.0000 </r>
       <r>   -18.8467     0.0000     0.0000 </r>
       <r>   -18.7203     0.0000     0.0000 </r>
       <r>   -18.5939     0.0000     0.0000 </r>
       <r>   -18.4675     0.0000     0.0000 </r>
       <r>   -18.3412     0.0000     0.0000 </r>
       <r>   -18.2148     0.0000     0.0000 </r>
       <r>   -18.0884     0.0000     0.0000 </r>
       <r>   -17.9620     0.0000     0.0000 </r>
       <r>   -17.8356     0.0000     0.0000 </r>
       <r>   -17.7093     0.0000     0.0000 </r>
       <r>   -17.5829     0.0000     0.0000 </r>
       <r>   -17.4565     0.0000     0.0000 </r>
       <r>   -17.3301     0.0000     0.0000 </r>
       <r>   -17.2037     0.0000     0.0000 </r>
       <r>   -17.0773     0.0000     0.0000 </r>
       <r>   -16.9510     0.0000     0.0000 </r>
       <r>   -16.8246     0.0000     0.0000 </r>
       <r>   -16.6982     0.0000     0.0000 </r>
       <r>   -16.5718     0.0000     0.0000 </r>
       <r>   -16.4454     0.0000     0.0000 </r>
       <r>   -16.3190     0.0000     0.0000 </r>
       <r>   -16.1927     0.0000     0.0000 </r>
       <r>   -16.0663     0.0000     0.0000 </r>
       <r>   -15.9399     0.0000     0.0000 </r>
       <r>   -15.8135     0.0000     0.0000 </r>
       <r>   -15.6871     0.0000     0.0000 </r>
       <r>   -15.5607     0.0000     0.0000 </r>
       <r>   -15.4344     0.0000     0.0000 </r>
       <r>   -15.3080     0.0000     0.0000 </r>
       <r>   -15.1816     0.0000     0.0000 </r>
       <r>   -15.0552     0.0000     0.0000 </r>
       <r>   -14.9288     0.0000     0.0000 </r>
       <r>   -14.8025     0.0000     0.0000 </r>
       <r>   -14.6761     0.0000     0.0000 </r>
       <r>   -14.5497     0.0000     0.0000 </r>
       <r>   -14.4233     0.0000     0.0000 </r>
       <r>   -14.2969     0.0000     0.0000 </r>
       <r>   -14.1705     0.0000     0.0000 </r>
       <r>   -14.0442     0.0000     0.0000 </r>
       <r>   -13.9178     0.0000     0.0000 </r>
       <r>   -13.7914     0.0000     0.0000 </r>
       <r>   -13.6650     0.0000     0.0000 </r>
       <r>   -13.5386     0.0000     0.0000 </r>
       <r>   -13.4122     0.0000     0.0000 </r>
       <r>   -13.2859     0.0000     0.0000 </r>
       <r>   -13.1595     0.0000     0.0000 </r>
       <r>   -13.0331     0.0000     0.0000 </r>
       <r>   -12.9067     0.0000     0.0000 </r>
       <r>   -12.7803     0.0000     0.0000 </r>
       <r>   -12.6539     0.0000     0.0000 </r>
       <r>   -12.5276     0.0000     0.0000 </r>
       <r>   -12.4012     0.0000     0.0000 </r>
       <r>   -12.2748     0.0000     0.0000 </r>
       <r>   -12.1484     0.0000     0.0000 </r>
       <r>   -12.0220     0.0000     0.0000 </r>
       <r>   -11.8957     0.0000     0.0000 </r>
       <r>   -11.7693     0.0000     0.0000 </r>
       <r>   -11.6429     0.0000     0.0000 </r>
       <r>   -11.5165     0.0000     0.0000 </r>
       <r>   -11.3901     0.0000     0.0000 </r>
       <r>   -11.2637     0.0000     0.0000 </r>
       <r>   -11.1374     0.0000     0.0000 </r>
       <r>   -11.0110     0.0000     0.0000 </r>
       <r>   -10.8846     0.0000     0.0000 </r>
       <r>   -10.7582     0.0000     0.0000 </r>
       <r>   -10.6318     0.0000     0.0000 </r>
       <r>   -10.5054     0.0000     0.0000 </r>
       <r>   -10.3791     0.0000     0.0000 </r>
       <r>   -10.2527     0.0000     0.0000 </r>
       <r>   -10.1263     0.0000     0.0000 </r>
       <r>    -9.9999     0.0000     0.0000 </r>
       <r>    -9.8735     0.0000     0.0000 </r>
       <r>    -9.7472     0.0000     0.0000 </r>
       <r>    -9.6208     0.0000     0.0000 </r>
       <r>    -9.4944     0.0000     0.0000 </r>
       <r>    -9.3680     0.0000     0.0000 </r>
       <r>    -9.2416     0.0000     0.0000 </r>
       <r>    -9.1152     0.0000     0.0000 </r>
       <r>    -8.9889     0.0000     0.0000 </r>
       <r>    -8.8625     0.0000     0.0000 </r>
       <r>    -8.7361     0.0000     0.0000 </r>
       <r>    -8.6097     0.0000     0.0000 </r>
       <r>    -8.4833     0.0000     0.0000 </r>
       <r>    -8.3569     0.0000     0.0000 </r>
       <r>    -8.2306     0.0000     0.0000 </r>
       <r>    -8.1042     0.0000     0.0000 </r>
       <r>    -7.9778     0.0000     0.0000 </r>
       <r>    -7.8514     0.0000     0.0000 </r>
       <r>    -7.7250     0.0000     0.0000 </r>
       <r>    -7.5986     0.0000     0.0000 </r>
       <r>    -7.4723     0.0000     0.0000 </r>
       <r>    -7.3459     0.0000     0.0000 </r>
       <r>    -7.2195     0.0000     0.0000 </r>
       <r>    -7.0931     0.0000     0.0000 </r>
       <r>    -6.9667     0.0000     0.0000 </r>
       <r>    -6.8404     0.0000     0.0000 </r>
       <r>    -6.7140     0.0000     0.0000 </r>
       <r>    -6.5876     0.0000     0.0000 </r>
       <r>    -6.4612     0.0000     0.0000 </r>
       <r>    -6.3348     0.0000     0.0000 </r>
       <r>    -6.2084     0.0000     0.0000 </r>
       <r>    -6.0821     0.0000     0.0000 </r>
       <r>    -5.9557     0.0000     0.0000 </r>
       <r>    -5.8293     0.0000     0.0000 </r>
       <r>    -5.7029     0.0000     0.0000 </r>
       <r>    -5.5765     0.0000     0.0000 </r>
       <r>    -5.4501     0.0000     0.0000 </r>
       <r>    -5.3238     0.0000     0.0000 </r>
       <r>    -5.1974     0.0000     0.0000 </r>
       <r>    -5.0710     0.0000     0.0000 </r>
       <r>    -4.9446     0.0000     0.0000 </r>
       <r>    -4.8182     0.0000     0.0000 </r>
       <r>    -4.6918     0.0000     0.0000 </r>
       <r>    -4.5655     0.0000     0.0000 </r>
       <r>    -4.4391     0.0000     0.0000 </r>
       <r>    -4.3127     0.0000     0.0000 </r>
       <r>    -4.1863     0.0000     0.0000 </r>
       <r>    -4.0599     0.0000     0.0000 </r>
       <r>    -3.9336     0.0000     0.0000 </r>
       <r>    -3.8072     0.0000     0.0000 </r>
       <r>    -3.6808     0.0000     0.0000 </r>
       <r>    -3.5544     0.0000     0.0000 </r>
       <r>    -3.4280     0.0000     0.0000 </r>
       <r>    -3.3016     0.0000     0.0000 </r>
       <r>    -3.1753     0.0000     0.0000 </r>
       <r>    -3.0489     0.0000     0.0000 </r>
       <r>    -2.9225     0.0000     0.0000 </r>
       <r>    -2.7961     0.0000     0.0000 </r>
       <r>    -2.6697     0.0000     0.0000 </r>
       <r>    -2.5433     0.0000     0.0000 </r>
       <r>    -2.4170     0.0000     0.0000 </r>
       <r>    -2.2906     0.0000     0.0000 </r>
       <r>    -2.1642     0.0000     0.0000 </r>
       <r>    -2.0378     0.0000     0.0000 </r>
       <r>    -1.9114     0.0000     0.0000 </r>
       <r>    -1.7851     0.0000     0.0000 </r>
       <r>    -1.6587     0.0000     0.0000 </r>
       <r>    -1.5323     0.0000     0.0000 </r>
       <r>    -1.4059     0.0000     0.0000 </r>
       <r>    -1.2795     0.0000     0.0000 </r>
       <r>    -1.1531     0.0000     0.0000 </r>
       <r>    -1.0268     0.0000     0.0000 </r>
       <r>    -0.9004     0.0000     0.0000 </r>
       <r>    -0.7740     0.0000     0.0000 </r>
       <r>    -0.6476     0.0000     0.0000 </r>
       <r>    -0.5212     0.0000     0.0000 </r>
       <r>    -0.3948     0.0000     0.0000 </r>
       <r>    -0.2685     0.0000     0.0000 </r>
       <r>    -0.1421     0.0000     0.0000 </r>
       <r>    -0.0157     0.0000     0.0000 </r>
       <r>     0.1107     0.0000     0.0000 </r>
       <r>     0.2371     0.0000     0.0000 </r>
       <r>     0.3635     0.0000     0.0000 </r>
       <r>     0.4898     0.0000     0.0000 </r>
       <r>     0.6162     0.0000     0.0000 </r>
       <r>     0.7426     0.0000     0.0000 </r>
       <r>     0.8690     0.0000     0.0000 </r>
       <r>     0.9954     0.0000     0.0000 </r>
       <r>     1.1217     0.0000     0.0000 </r>
       <r>     1.2481     0.0000     0.0000 </r>
       <r>     1.3745     0.0000     0.0000 </r>
       <r>     1.5009     0.0000     0.0000 </r>
       <r>     1.6273     0.0000     0.0000 </r>
       <r>     1.7537     0.0000     0.0000 </r>
       <r>     1.8800     0.0000     0.0000 </r>
       <r>     2.0064     0.0000     0.0000 </r>
       <r>     2.1328     0.0000     0.0000 </r>
       <r>     2.2592     0.0000     0.0000 </r>
       <r>     2.3856     0.0000     0.0000 </r>
       <r>     2.5120     0.0000     0.0000 </r>
       <r>     2.6383     0.0000     0.0000 </r>
       <r>     2.7647     0.0000     0.0000 </r>
       <r>     2.8911     0.0000     0.0000 </r>
       <r>     3.0175     0.0000     0.0000 </r>
       <r>     3.1439     0.0000     0.0000 </r>
       <r>     3.2703     0.0000     0.0000 </r>
       <r>     3.3966     0.0000     0.0000 </r>
       <r>     3.5230     0.0000     0.0000 </r>
       <r>     3.6494     0.0000     0.0000 </r>
       <r>     3.7758     0.0000     0.0000 </r>
       <r>     3.9022     0.0000     0.0000 </r>
       <r>     4.0285     0.0000     0.0000 </r>
       <r>     4.1549     0.0000     0.0000 </r>
       <r>     4.2813     0.0000     0.0000 </r>
       <r>     4.4077     0.0000     0.0000 </r>
       <r>     4.5341     0.0000     0.0000 </r>
       <r>     4.6605     0.0000     0.0000 </r>
       <r>     4.7868     0.0000     0.0000 </r>
       <r>     4.9132     0.0000     0.0000 </r>
       <r>     5.0396     0.0000     0.0000 </r>
       <r>     5.1660     0.0000     0.0000 </r>
       <r>     5.2924     0.0000     0.0000 </r>
       <r>     5.4188     0.0000     0.0000 </r>
       <r>     5.5451     0.0000     0.0000 </r>
       <r>     5.6715     0.0000     0.0000 </r>
       <r>     5.7979     0.0000     0.0000 </r>
       <r>     5.9243     0.0000     0.0000 </r>
       <r>     6.0507     0.0000     0.0000 </r>
       <r>     6.1770     0.0000     0.0000 </r>
       <r>     6.3034     0.0000     0.0000 </r>
       <r>     6.4298     0.0000     0.0000 </r>
       <r>     6.5562     0.0000     0.0000 </r>
       <r>     6.6826     0.0000     0.0000 </r>
       <r>     6.8090     0.0000     0.0000 </r>
       <r>     6.9353     0.0000     0.0000 </r>
       <r>     7.0617     0.0000     0.0000 </r>
       <r>     7.1881     0.0000     0.0000 </r>
       <r>     7.3145     0.0000     0.0000 </r>
       <r>     7.4409     0.0000     0.0000 </r>
       <r>     7.5673     0.0000     0.0000 </r>
       <r>     7.6936     0.0000     0.0000 </r>
       <r>     7.8200     0.0000     0.0000 </r>
       <r>     7.9464     0.0000     0.0000 </r>
       <r>     8.0728     0.0000     0.0000 </r>
       <r>     8.1992     0.0000     0.0000 </r>
       <r>     8.3256     0.0000     0.0000 </r>
       <r>     8.4519     0.0000     0.0000 </r>
       <r>     8.5783     0.0000     0.0000 </r>
       <r>     8.7047     0.0000     0.0000 </r>
       <r>     8.8311     0.0000     0.0000 </r>
       <r>     8.9575     0.0000     0.0000 </r>
       <r>     9.0838     0.0000     0.0000 </r>
       <r>     9.2102     0.0000     0.0000 </r>
       <r>     9.3366     0.0000     0.0000 </r>
       <r>     9.4630     0.0000     0.0000 </r>
       <r>     9.5894     0.0000     0.0000 </r>
       <r>     9.7158     0.0000     0.0000 </r>
       <r>     9.8421     0.0000     0.0000 </r>
       <r>     9.9685     0.0000     0.0000 </r>
       <r>    10.0949     0.0000     0.0000 </r>
       <r>    10.2213     0.0000     0.0000 </r>
       <r>    10.3477     0.0000     0.0000 </r>
       <r>    10.4741     0.0000     0.0000 </r>
       <r>    10.6004     0.0000     0.0000 </r>
       <r>    10.7268     0.0000     0.0000 </r>
       <r>    10.8532     0.0000     0.0000 </r>
       <r>    10.9796     0.0000     0.0000 </r>
       <r>    11.1060     0.0000     0.0000 </r>
       <r>    11.2324     0.0000     0.0000 </r>
       <r>    11.3587     0.0000     0.0000 </r>
       <r>    11.4851     0.0000     0.0000 </r>
       <r>    11.6115     0.0000     0.0000 </r>
       <r>    11.7379     0.0000     0.0000 </r>
       <r>    11.8643     0.0000     0.0000 </r>
       <r>    11.9906     0.0000     0.0000 </r>
       <r>    12.1170     0.0000     0.0000 </r>
       <r>    12.2434     0.0000     0.0000 </r>
       <r>    12.3698     0.0000     0.0000 </r>
       <r>    12.4962     0.0000     0.0000 </r>
       <r>    12.6226     0.0000     0.0000 </r>
       <r>    12.7489     0.0000     0.0000 </r>
       <r>    12.8753     0.0000     0.0000 </r>
       <r>    13.0017     0.0000     0.0000 </r>
       <r>    13.1281     0.0000     0.0000 </r>
       <r>    13.2545     0.0000     0.0000 </r>
       <r>    13.3809     0.0000     0.0000 </r>
       <r>    13.5072     0.0000     0.0000 </r>
       <r>    13.6336     0.0000     0.0000 </r>
       <r>    13.7600     0.0000     0.0000 </r>
       <r>    13.8864     0.0000     0.0000 </r>
       <r>    14.0128     0.0000     0.0000 </r>
       <r>    14.1391     0.0000     0.0000 </r>
       <r>    14.2655     0.0000     0.0000 </r>
       <r>    14.3919     0.0000     0.0000 </r>
       <r>    14.5183     0.0000     0.0000 </r>
       <r>    14.6447     0.0000     0.0000 </r>
       <r>    14.7711     0.0000     0.0000 </r>
       <r>    14.8974     0.0000     0.0000 </r>
       <r>    15.0238     0.0000     0.0000 </r>
       <r>    15.1502     0.0000     0.0000 </r>
       <r>    15.2766     0.0000     0.0000 </r>
      </set>
     </set>
    </array>
   </total>
  </dos>
 </calculation>
 <structure name="finalpos" >
  <crystal>
   <varray name="basis" >
    <v>       4.30014086       0.00000000       0.00000000 </v>
    <v>       0.00000000       4.30014086       0.00000000 </v>
    <v>       0.00000000       0.00000000       6.14586115 </v>
   </varray>
   <i name="volume">    113.64441771 </i>
   <varray name="rec_basis" >
    <v>       0.23255052       0.00000000       0.00000000 </v>
    <v>       0.00000000       0.23255052       0.00000000 </v>
    <v>       0.00000000       0.00000000       0.16271113 </v>
   </varray>
  </crystal>
  <varray name="positions" >
   <v>       0.50000000       0.00000000       0.72573602 </v>
   <v>       0.00000000       0.50000000       0.27426400 </v>
   <v>       0.00000000       0.00000000       0.00000000 </v>
   <v>       0.50000000       0.50000000       0.50000000 </v>
  </varray>
 </structure>
</modeling>
