   4   4   0   0
  0.2841110E+02  0.4300141E-09  0.4300141E-09  0.6145861E-09  0.5000000E-15
  1.000000000000000E-004
  CAR 
 Ga2BiAs                                 
     12.99469752    -22.24122764  301      3.66866712      1.00000000
    -22.241  0.0000E+00  0.0000E+00
    -22.124  0.0000E+00  0.0000E+00
    -22.006  0.0000E+00  0.0000E+00
    -21.889  0.0000E+00  0.0000E+00
    -21.771  0.0000E+00  0.0000E+00
    -21.654  0.0000E+00  0.0000E+00
    -21.537  0.0000E+00  0.0000E+00
    -21.419  0.0000E+00  0.0000E+00
    -21.302  0.0000E+00  0.0000E+00
    -21.184  0.0000E+00  0.0000E+00
    -21.067  0.0000E+00  0.0000E+00
    -20.949  0.0000E+00  0.0000E+00
    -20.832  0.3495E-06  0.4105E-07
    -20.714  0.2589E+00  0.3041E-01
    -20.597  0.1809E+02  0.2156E+01
    -20.479  0.1559E+02  0.3987E+01
    -20.362  0.1126E+00  0.4000E+01
    -20.245  0.5974E-07  0.4000E+01
    -20.127  0.0000E+00  0.4000E+01
    -20.010  0.0000E+00  0.4000E+01
    -19.892  0.0000E+00  0.4000E+01
    -19.775  0.0000E+00  0.4000E+01
    -19.657  0.0000E+00  0.4000E+01
    -19.540  0.0000E+00  0.4000E+01
    -19.422  0.0000E+00  0.4000E+01
    -19.305  0.0000E+00  0.4000E+01
    -19.187  0.0000E+00  0.4000E+01
    -19.070  0.0000E+00  0.4000E+01
    -18.953  0.0000E+00  0.4000E+01
    -18.835  0.0000E+00  0.4000E+01
    -18.718  0.0000E+00  0.4000E+01
    -18.600  0.0000E+00  0.4000E+01
    -18.483  0.0000E+00  0.4000E+01
    -18.365  0.0000E+00  0.4000E+01
    -18.248  0.0000E+00  0.4000E+01
    -18.130  0.0000E+00  0.4000E+01
    -18.013  0.0000E+00  0.4000E+01
    -17.895  0.9412E-07  0.4000E+01
    -17.778  0.1512E+00  0.4018E+01
    -17.661  0.2340E+02  0.6766E+01
    -17.543  0.2646E+02  0.9873E+01
    -17.426  0.1082E+01  0.1000E+02
    -17.308  0.1154E-04  0.1000E+02
    -17.191  0.1326E-14  0.1000E+02
    -17.073  0.0000E+00  0.1000E+02
    -16.956  0.0000E+00  0.1000E+02
    -16.838  0.0000E+00  0.1000E+02
    -16.721  0.0000E+00  0.1000E+02
    -16.603  0.0000E+00  0.1000E+02
    -16.486  0.0000E+00  0.1000E+02
    -16.369  0.0000E+00  0.1000E+02
    -16.251  0.0000E+00  0.1000E+02
    -16.134  0.0000E+00  0.1000E+02
    -16.016  0.0000E+00  0.1000E+02
    -15.899  0.0000E+00  0.1000E+02
    -15.781  0.0000E+00  0.1000E+02
    -15.664  0.0000E+00  0.1000E+02
    -15.546  0.0000E+00  0.1000E+02
    -15.429  0.0000E+00  0.1000E+02
    -15.311  0.0000E+00  0.1000E+02
    -15.194  0.0000E+00  0.1000E+02
    -15.077  0.0000E+00  0.1000E+02
    -14.959  0.0000E+00  0.1000E+02
    -14.842  0.0000E+00  0.1000E+02
    -14.724  0.0000E+00  0.1000E+02
    -14.607  0.0000E+00  0.1000E+02
    -14.489  0.0000E+00  0.1000E+02
    -14.372  0.0000E+00  0.1000E+02
    -14.254  0.0000E+00  0.1000E+02
    -14.137  0.0000E+00  0.1000E+02
    -14.020  0.0000E+00  0.1000E+02
    -13.902  0.0000E+00  0.1000E+02
    -13.785  0.0000E+00  0.1000E+02
    -13.667  0.0000E+00  0.1000E+02
    -13.550  0.0000E+00  0.1000E+02
    -13.432  0.0000E+00  0.1000E+02
    -13.315  0.0000E+00  0.1000E+02
    -13.197  0.0000E+00  0.1000E+02
    -13.080  0.0000E+00  0.1000E+02
    -12.962  0.0000E+00  0.1000E+02
    -12.845  0.0000E+00  0.1000E+02
    -12.728  0.0000E+00  0.1000E+02
    -12.610  0.0000E+00  0.1000E+02
    -12.493  0.0000E+00  0.1000E+02
    -12.375  0.0000E+00  0.1000E+02
    -12.258  0.0000E+00  0.1000E+02
    -12.140  0.0000E+00  0.1000E+02
    -12.023  0.0000E+00  0.1000E+02
    -11.905  0.0000E+00  0.1000E+02
    -11.788  0.0000E+00  0.1000E+02
    -11.670  0.0000E+00  0.1000E+02
    -11.553  0.0000E+00  0.1000E+02
    -11.436  0.0000E+00  0.1000E+02
    -11.318  0.0000E+00  0.1000E+02
    -11.201  0.0000E+00  0.1000E+02
    -11.083  0.0000E+00  0.1000E+02
    -10.966  0.0000E+00  0.1000E+02
    -10.848  0.0000E+00  0.1000E+02
    -10.731  0.0000E+00  0.1000E+02
    -10.613  0.0000E+00  0.1000E+02
    -10.496  0.0000E+00  0.1000E+02
    -10.378  0.0000E+00  0.1000E+02
    -10.261  0.0000E+00  0.1000E+02
    -10.144  0.0000E+00  0.1000E+02
    -10.026  0.0000E+00  0.1000E+02
     -9.909  0.0000E+00  0.1000E+02
     -9.791  0.0000E+00  0.1000E+02
     -9.674  0.0000E+00  0.1000E+02
     -9.556  0.0000E+00  0.1000E+02
     -9.439  0.0000E+00  0.1000E+02
     -9.321  0.0000E+00  0.1000E+02
     -9.204  0.5711E-15  0.1000E+02
     -9.086  0.1746E-05  0.1000E+02
     -8.969  0.1609E+00  0.1002E+02
     -8.852  0.3711E+01  0.1045E+02
     -8.734  0.2619E+01  0.1076E+02
     -8.617  0.1794E+01  0.1097E+02
     -8.499  0.1491E+01  0.1115E+02
     -8.382  0.1338E+01  0.1131E+02
     -8.264  0.1344E+01  0.1146E+02
     -8.147  0.9402E+00  0.1157E+02
     -8.029  0.1194E+01  0.1171E+02
     -7.912  0.1052E+01  0.1184E+02
     -7.794  0.1015E+01  0.1196E+02
     -7.677  0.1018E+01  0.1208E+02
     -7.560  0.1033E+01  0.1220E+02
     -7.442  0.1087E+01  0.1233E+02
     -7.325  0.1203E+01  0.1247E+02
     -7.207  0.1527E+01  0.1265E+02
     -7.090  0.6774E+01  0.1344E+02
     -6.972  0.4745E+01  0.1400E+02
     -6.855  0.8367E-02  0.1400E+02
     -6.737  0.1151E-08  0.1400E+02
     -6.620  0.0000E+00  0.1400E+02
     -6.503  0.0000E+00  0.1400E+02
     -6.385  0.0000E+00  0.1400E+02
     -6.268  0.0000E+00  0.1400E+02
     -6.150  0.0000E+00  0.1400E+02
     -6.033  0.0000E+00  0.1400E+02
     -5.915  0.0000E+00  0.1400E+02
     -5.798  0.0000E+00  0.1400E+02
     -5.680  0.0000E+00  0.1400E+02
     -5.563  0.0000E+00  0.1400E+02
     -5.445  0.0000E+00  0.1400E+02
     -5.328  0.0000E+00  0.1400E+02
     -5.211  0.0000E+00  0.1400E+02
     -5.093  0.0000E+00  0.1400E+02
     -4.976  0.0000E+00  0.1400E+02
     -4.858  0.0000E+00  0.1400E+02
     -4.741  0.0000E+00  0.1400E+02
     -4.623  0.0000E+00  0.1400E+02
     -4.506  0.0000E+00  0.1400E+02
     -4.388  0.0000E+00  0.1400E+02
     -4.271  0.0000E+00  0.1400E+02
     -4.153  0.0000E+00  0.1400E+02
     -4.036  0.0000E+00  0.1400E+02
     -3.919  0.0000E+00  0.1400E+02
     -3.801  0.0000E+00  0.1400E+02
     -3.684  0.4780E-10  0.1400E+02
     -3.566  0.6820E-03  0.1400E+02
     -3.449  0.1081E+01  0.1413E+02
     -3.331  0.6148E+01  0.1485E+02
     -3.214  0.3456E+01  0.1526E+02
     -3.096  0.2121E+01  0.1550E+02
     -2.979  0.7827E+00  0.1560E+02
     -2.861  0.6841E+00  0.1568E+02
     -2.744  0.6371E+00  0.1575E+02
     -2.627  0.6116E+00  0.1582E+02
     -2.509  0.5737E+00  0.1589E+02
     -2.392  0.5167E+00  0.1595E+02
     -2.274  0.4925E+00  0.1601E+02
     -2.157  0.5453E+00  0.1607E+02
     -2.039  0.5098E+00  0.1613E+02
     -1.922  0.4276E+00  0.1618E+02
     -1.804  0.5013E+00  0.1624E+02
     -1.687  0.4998E+00  0.1630E+02
     -1.569  0.3971E+00  0.1635E+02
     -1.452  0.4949E+00  0.1641E+02
     -1.335  0.5545E+00  0.1647E+02
     -1.217  0.3750E+00  0.1651E+02
     -1.100  0.5908E+00  0.1658E+02
     -0.982  0.4437E+00  0.1664E+02
     -0.865  0.3983E+00  0.1668E+02
     -0.747  0.4982E+00  0.1674E+02
     -0.630  0.3953E+00  0.1679E+02
     -0.512  0.4097E+00  0.1684E+02
     -0.395  0.5640E+00  0.1690E+02
     -0.278  0.1276E+01  0.1705E+02
     -0.160  0.1012E+01  0.1717E+02
     -0.043  0.9507E+00  0.1728E+02
      0.075  0.1167E+01  0.1742E+02
      0.192  0.2468E+01  0.1771E+02
      0.310  0.3924E+01  0.1817E+02
      0.427  0.3117E+01  0.1854E+02
      0.545  0.5982E+01  0.1924E+02
      0.662  0.2795E+01  0.1957E+02
      0.780  0.1641E+01  0.1976E+02
      0.897  0.6066E+01  0.2047E+02
      1.014  0.5198E+01  0.2108E+02
      1.132  0.4337E+01  0.2159E+02
      1.249  0.4365E+01  0.2211E+02
      1.367  0.1966E+01  0.2234E+02
      1.484  0.1291E+01  0.2249E+02
      1.602  0.1365E+01  0.2265E+02
      1.719  0.2181E+01  0.2290E+02
      1.837  0.1835E+01  0.2312E+02
      1.954  0.1788E+01  0.2333E+02
      2.072  0.2066E+01  0.2357E+02
      2.189  0.1553E+01  0.2376E+02
      2.306  0.1224E+01  0.2390E+02
      2.424  0.2360E+01  0.2418E+02
      2.541  0.3794E+01  0.2462E+02
      2.659  0.2104E+01  0.2487E+02
      2.776  0.1070E+01  0.2499E+02
      2.894  0.8914E+00  0.2510E+02
      3.011  0.8249E+00  0.2520E+02
      3.129  0.7986E+00  0.2529E+02
      3.246  0.8036E+00  0.2538E+02
      3.364  0.8547E+00  0.2548E+02
      3.481  0.1149E+01  0.2562E+02
      3.598  0.2319E+01  0.2589E+02
      3.716  0.1591E+01  0.2608E+02
      3.833  0.2523E+01  0.2638E+02
      3.951  0.1073E+01  0.2650E+02
      4.068  0.1791E+01  0.2671E+02
      4.186  0.2428E+01  0.2700E+02
      4.303  0.3417E+01  0.2740E+02
      4.421  0.5381E+01  0.2803E+02
      4.538  0.4902E+01  0.2861E+02
      4.656  0.3999E+01  0.2908E+02
      4.773  0.3497E+01  0.2949E+02
      4.890  0.4868E+01  0.3006E+02
      5.008  0.4526E+01  0.3059E+02
      5.125  0.1507E+01  0.3077E+02
      5.243  0.1469E+01  0.3094E+02
      5.360  0.1547E+01  0.3112E+02
      5.478  0.2782E+01  0.3145E+02
      5.595  0.2625E+01  0.3176E+02
      5.713  0.1266E+01  0.3190E+02
      5.830  0.9237E+00  0.3201E+02
      5.948  0.3463E+01  0.3242E+02
      6.065  0.3333E+01  0.3281E+02
      6.182  0.2947E+01  0.3316E+02
      6.300  0.3010E+01  0.3351E+02
      6.417  0.2016E+01  0.3375E+02
      6.535  0.4450E+01  0.3427E+02
      6.652  0.2462E+01  0.3456E+02
      6.770  0.1912E+01  0.3478E+02
      6.887  0.1608E+01  0.3497E+02
      7.005  0.1685E+01  0.3517E+02
      7.122  0.1439E+01  0.3534E+02
      7.239  0.1376E+01  0.3550E+02
      7.357  0.1261E+01  0.3565E+02
      7.474  0.1016E+01  0.3577E+02
      7.592  0.9350E+00  0.3588E+02
      7.709  0.9660E+00  0.3599E+02
      7.827  0.1333E+01  0.3615E+02
      7.944  0.1234E+01  0.3629E+02
      8.062  0.1290E+01  0.3645E+02
      8.179  0.1125E+01  0.3658E+02
      8.297  0.1257E+01  0.3672E+02
      8.414  0.1505E+01  0.3690E+02
      8.531  0.1070E+01  0.3703E+02
      8.649  0.1490E+01  0.3720E+02
      8.766  0.1189E+01  0.3734E+02
      8.884  0.8786E+00  0.3745E+02
      9.001  0.9770E+00  0.3756E+02
      9.119  0.1749E+01  0.3777E+02
      9.236  0.2150E+01  0.3802E+02
      9.354  0.1684E+01  0.3822E+02
      9.471  0.1341E+01  0.3837E+02
      9.589  0.1525E+01  0.3855E+02
      9.706  0.1269E+01  0.3870E+02
      9.823  0.1378E+01  0.3886E+02
      9.941  0.1384E+01  0.3903E+02
     10.058  0.1050E+01  0.3915E+02
     10.176  0.1066E+01  0.3927E+02
     10.293  0.4979E+00  0.3933E+02
     10.411  0.2951E+00  0.3937E+02
     10.528  0.5543E+00  0.3943E+02
     10.646  0.3020E+00  0.3947E+02
     10.763  0.5404E+00  0.3953E+02
     10.881  0.4618E+00  0.3959E+02
     10.998  0.5940E+00  0.3966E+02
     11.115  0.9099E+00  0.3976E+02
     11.233  0.6192E+00  0.3984E+02
     11.350  0.8599E+00  0.3994E+02
     11.468  0.5383E+00  0.4000E+02
     11.585  0.5790E-02  0.4000E+02
     11.703  0.7133E-08  0.4000E+02
     11.820  0.0000E+00  0.4000E+02
     11.938  0.0000E+00  0.4000E+02
     12.055  0.0000E+00  0.4000E+02
     12.173  0.0000E+00  0.4000E+02
     12.290  0.0000E+00  0.4000E+02
     12.407  0.0000E+00  0.4000E+02
     12.525  0.0000E+00  0.4000E+02
     12.642  0.0000E+00  0.4000E+02
     12.760  0.0000E+00  0.4000E+02
     12.877  0.0000E+00  0.4000E+02
     12.995  0.0000E+00  0.4000E+02
