 vasp.5.4.4.18Apr17-6-g9f103f2a35 (build Dec 27 2023 19:01:44) complex          
  
 executed on             LinuxIFC date 2020.08.23  17:09:17
 running on   32 total cores
 distrk:  each k-point on   32 cores,    1 groups
 distr:  one band on NCORES_PER_BAND=   8 cores,    4 groups


--------------------------------------------------------------------------------------------------------


 INCAR:
 POTCAR:    PAW_PBE Ga 08Apr2002                  
 POTCAR:    PAW_PBE Bi_d 06Sep2000                
 POTCAR:    PAW_PBE As 22Sep2009                  
 POTCAR:    PAW_PBE Ga 08Apr2002                  
   VRHFIN =Ga: s2p1                                                             
   LEXCH  = PE                                                                  
   EATOM  =    58.8688 eV,    4.3267 Ry                                         
                                                                                
   TITEL  = PAW_PBE Ga 08Apr2002                                                
   LULTRA =        F    use ultrasoft PP ?                                      
   IUNSCR =        1    unscreen: 0-lin 1-nonlin 2-no                           
   RPACOR =    2.170    partial core radius                                     
   POMASS =   69.723; ZVAL   =    3.000    mass and valenz                      
   RCORE  =    2.600    outmost cutoff radius                                   
   RWIGS  =    2.650; RWIGS  =    1.402    wigner-seitz radius (au A)           
   ENMAX  =  134.678; ENMIN  =  101.009 eV                                      
   ICORE  =        3    local potential                                         
   LCOR   =        T    correct aug charges                                     
   LPAW   =        T    paw PP                                                  
   EAUG   =  320.264                                                            
   DEXC   =    0.000                                                            
   RMAX   =    2.658    core radius for proj-oper                               
   RAUG   =    1.300    factor for augmentation sphere                          
   RDEP   =    2.684    radius for radial grids                                 
   RDEPT  =    2.308    core radius for aug-charge                              
                                                                                
   Atomic configuration                                                         
   10 entries                                                                   
     n  l   j            E        occ.                                          
     1  0  0.50    -10228.7830   2.0000                                         
     2  0  0.50     -1262.1604   2.0000                                         
     2  1  1.50     -1098.6333   6.0000                                         
     3  0  0.50      -148.1110   2.0000                                         
     3  1  1.50       -98.8436   6.0000                                         
     3  2  2.50       -19.1549  10.0000                                         
     4  0  0.50        -8.9483   2.0000                                         
     4  1  0.50        -2.5791   1.0000                                         
     4  2  1.50         5.4423   0.0000                                         
     4  3  2.50        -2.7416   0.0000                                         
   Description                                                                  
     l       E           TYP  RCUT    TYP  RCUT                                 
     0     -8.9483097     23  2.600                                             
     0     -5.8232215     23  2.600                                             
     1     -2.5790793     23  2.600                                             
     1      5.2230115     23  2.600                                             
     2      1.3605826     23  2.600                                             
     3     -1.3605826      7  2.600                                             
  local pseudopotential read in
  partial core-charges read in
  partial kinetic energy density read in
  atomic valenz-charges read in
  non local Contribution for L=           0  read in
    real space projection operators read in
  non local Contribution for L=           0  read in
    real space projection operators read in
  non local Contribution for L=           1  read in
    real space projection operators read in
  non local Contribution for L=           1  read in
    real space projection operators read in
  non local Contribution for L=           2  read in
    real space projection operators read in
    PAW grid and wavefunctions read in
 
   number of l-projection  operators is LMAX  =           5
   number of lm-projection operators is LMMAX =          13
 
 POTCAR:    PAW_PBE Bi_d 06Sep2000                
   VRHFIN =Bi:                                                                  
   LEXCH  = PE                                                                  
   EATOM  =  1959.2045 eV,  143.9975 Ry                                         
                                                                                
   TITEL  = PAW_PBE Bi_d 06Sep2000                                              
   LULTRA =        F    use ultrasoft PP ?                                      
   IUNSCR =        1    unscreen: 0-lin 1-nonlin 2-no                           
   RPACOR =    2.200    partial core radius                                     
   POMASS =  208.980; ZVAL   =   15.000    mass and valenz                      
   RCORE  =    2.500    outmost cutoff radius                                   
   RWIGS  =    3.090; RWIGS  =    1.635    wigner-seitz radius (au A)           
   ENMAX  =  242.839; ENMIN  =  182.129 eV                                      
   ICORE  =        3    local potential                                         
   LCOR   =        T    correct aug charges                                     
   LPAW   =        T    paw PP                                                  
   EAUG   =  442.899                                                            
   DEXC   =    0.000                                                            
   RMAX   =    2.551    core radius for proj-oper                               
   RAUG   =    1.300    factor for augmentation sphere                          
   RDEP   =    2.650    radius for radial grids                                 
   RDEPT  =    2.039    core radius for aug-charge                              
                                                                                
   Atomic configuration                                                         
   16 entries                                                                   
     n  l   j            E        occ.                                          
     1  0  0.50    -90639.6581   2.0000                                         
     2  0  0.50    -16282.4666   2.0000                                         
     2  1  1.50    -13922.8286   6.0000                                         
     3  0  0.50     -3930.4763   2.0000                                         
     3  1  1.50     -3256.7013   6.0000                                         
     3  2  2.50     -2581.6168  10.0000                                         
     4  0  0.50      -902.2614   2.0000                                         
     4  1  1.50      -681.5915   6.0000                                         
     4  2  2.50      -429.8249  10.0000                                         
     4  3  3.50      -152.6004  14.0000                                         
     5  0  0.50      -157.7156   2.0000                                         
     5  1  1.50       -95.8054   6.0000                                         
     5  2  2.50       -27.0806  10.0000                                         
     6  0  0.50       -14.4732   2.0000                                         
     6  1  1.50        -4.5702   3.0000                                         
     5  3  2.50        -2.7212   0.0000                                         
   Description                                                                  
     l       E           TYP  RCUT    TYP  RCUT                                 
     2    -27.0805982     23  2.500                                             
     2     -1.3605826     23  2.500                                             
     0    -14.4732271     23  2.500                                             
     0      6.8029130     23  2.500                                             
     1     -4.5701651     23  2.500                                             
     1     13.6058260     23  2.500                                             
     3     -1.3605826      7  2.500                                             
  local pseudopotential read in
  partial core-charges read in
  partial kinetic energy density read in
  atomic valenz-charges read in
  non local Contribution for L=           2  read in
    real space projection operators read in
  non local Contribution for L=           2  read in
    real space projection operators read in
  non local Contribution for L=           0  read in
    real space projection operators read in
  non local Contribution for L=           0  read in
    real space projection operators read in
  non local Contribution for L=           1  read in
    real space projection operators read in
  non local Contribution for L=           1  read in
    real space projection operators read in
    PAW grid and wavefunctions read in
 
   number of l-projection  operators is LMAX  =           6
   number of lm-projection operators is LMMAX =          18
 
 POTCAR:    PAW_PBE As 22Sep2009                  
   VRHFIN =As: s2p3                                                             
   LEXCH  = PE                                                                  
   EATOM  =   170.1867 eV,   12.5084 Ry                                         
                                                                                
   TITEL  = PAW_PBE As 22Sep2009                                                
   LULTRA =        F    use ultrasoft PP ?                                      
   IUNSCR =        1    unscreen: 0-lin 1-nonlin 2-no                           
   RPACOR =    1.900    partial core radius                                     
   POMASS =   74.922; ZVAL   =    5.000    mass and valenz                      
   RCORE  =    2.100    outmost cutoff radius                                   
   RWIGS  =    2.300; RWIGS  =    1.217    wigner-seitz radius (au A)           
   ENMAX  =  208.702; ENMIN  =  156.526 eV                                      
   ICORE  =        3    local potential                                         
   LCOR   =        T    correct aug charges                                     
   LPAW   =        T    paw PP                                                  
   EAUG   =  462.758                                                            
   DEXC   =    0.000                                                            
   RMAX   =    2.144    core radius for proj-oper                               
   RAUG   =    1.300    factor for augmentation sphere                          
   RDEP   =    2.140    radius for radial grids                                 
   RDEPT  =    1.956    core radius for aug-charge                              
                                                                                
   Atomic configuration                                                         
   10 entries                                                                   
     n  l   j            E        occ.                                          
     1  0  0.50    -11718.0418   2.0000                                         
     2  0  0.50     -1486.5454   2.0000                                         
     2  1  1.50     -1303.3889   6.0000                                         
     3  0  0.50      -190.2849   2.0000                                         
     3  1  1.50      -133.6555   6.0000                                         
     3  2  2.50       -40.6443  10.0000                                         
     4  0  0.50       -14.4936   2.0000                                         
     4  1  0.50        -5.1947   3.0000                                         
     4  2  1.50        -5.4423   0.0000                                         
     4  3  2.50        -5.4423   0.0000                                         
   Description                                                                  
     l       E           TYP  RCUT    TYP  RCUT                                 
     0    -14.4935570     23  2.100                                             
     0    -11.9212055     23  2.100                                             
     1     -5.1947127     23  2.100                                             
     1     27.2116520     23  2.100                                             
     2     -5.4423304     23  2.100                                             
     3     -1.3605826      7  2.100                                             
  local pseudopotential read in
  partial core-charges read in
  partial kinetic energy density read in
  atomic valenz-charges read in
  non local Contribution for L=           0  read in
    real space projection operators read in
  non local Contribution for L=           0  read in
    real space projection operators read in
  non local Contribution for L=           1  read in
    real space projection operators read in
  non local Contribution for L=           1  read in
    real space projection operators read in
  non local Contribution for L=           2  read in
    real space projection operators read in
    PAW grid and wavefunctions read in
 
   number of l-projection  operators is LMAX  =           5
   number of lm-projection operators is LMMAX =          13
 
  PAW_PBE Ga 08Apr2002                  :
 energy of atom  1       EATOM=  -58.8688
 kinetic energy error for atom=    0.0000 (will be added to EATOM!!)
  PAW_PBE Bi_d 06Sep2000                :
 energy of atom  2       EATOM=-1959.2045
 kinetic energy error for atom=    0.0049 (will be added to EATOM!!)
  PAW_PBE As 22Sep2009                  :
 energy of atom  3       EATOM= -170.1867
 kinetic energy error for atom=    0.0005 (will be added to EATOM!!)
 
 
 POSCAR: Ga2 Bi1 As1                             
  positions in direct lattice
  No initial velocities read in
 exchange correlation table for  LEXCH =        8
   RHO(1)=    0.500       N(1)  =     2000
   RHO(2)=  100.500       N(2)  =     4000
 


--------------------------------------------------------------------------------------------------------


 ion  position               nearest neighbor table
   1  0.500  0.000  0.726-   4 2.56   4 2.56   3 2.73   3 2.73
   2  0.000  0.500  0.274-   4 2.56   4 2.56   3 2.73   3 2.73
   3  0.000  0.000  0.000-   1 2.73   1 2.73   2 2.73   2 2.73
   4  0.500  0.500  0.500-   2 2.56   2 2.56   1 2.56   1 2.56
 
  LATTYP: Found a simple tetragonal cell.
 ALAT       =     4.3001408577
 C/A-ratio  =     1.4292232167
  
  Lattice vectors:
  
 A1 = (   4.3001408577,   0.0000000000,   0.0000000000)
 A2 = (   0.0000000000,   4.3001408577,   0.0000000000)
 A3 = (   0.0000000000,   0.0000000000,   6.1458611488)


Analysis of symmetry for initial positions (statically):
=====================================================================
 Subroutine PRICEL returns:
 Original cell was already a primitive cell.
 

 Routine SETGRP: Setting up the symmetry group for a 
 simple tetragonal supercell.


 Subroutine GETGRP returns: Found  8 space group operations
 (whereof  8 operations were pure point group operations)
 out of a pool of 16 trial point group operations.


The static configuration has the point symmetry D_2d.


Analysis of symmetry for dynamics (positions and initial velocities):
=====================================================================
 Subroutine PRICEL returns:
 Original cell was already a primitive cell.
 

 Routine SETGRP: Setting up the symmetry group for a 
 simple tetragonal supercell.


 Subroutine GETGRP returns: Found  8 space group operations
 (whereof  8 operations were pure point group operations)
 out of a pool of 16 trial point group operations.


The dynamic configuration has the point symmetry D_2d.


Analysis of structural, dynamic, and magnetic symmetry:
=====================================================================
 Subroutine PRICEL returns:
 Original cell was already a primitive cell.
 

 Routine SETGRP: Setting up the symmetry group for a 
 simple tetragonal supercell.


 Subroutine GETGRP returns: Found  1 space group operations
 (whereof  1 operations were pure point group operations)
 out of a pool of 16 trial point group operations.


The (compounded) configuration has the point symmetry C_1 .


 Subroutine INISYM returns: Found  1 space group operations
 (whereof  1 operations are pure point group operations),
 and found     1 'primitive' translations

 
 
 KPOINTS: K-points alon1g high symmetry lines     
  interpolating k-points between supplied coordinates
  k-points in reciprocal lattice
Space group operators:
 irot       det(A)        alpha          n_x          n_y          n_z        tau_x        tau_y        tau_z
    1     1.000000     0.000001     1.000000     0.000000     0.000000     0.000000     0.000000     0.000000


--------------------------------------------------------------------------------------------------------




 Dimension of arrays:
   k-points           NKPTS =     72   k-points in BZ     NKDIM =     72   number of bands    NBANDS=     40
   number of dos      NEDOS =    301   number of ions     NIONS =      4
   non local maximal  LDIM  =      6   non local SUM 2l+1 LMDIM =     18
   total plane-waves  NPLWV =  49152
   max r-space proj   IRMAX =      1   max aug-charges    IRDMAX=  31281
   dimension x,y,z NGX =    32 NGY =   32 NGZ =   48
   dimension x,y,z NGXF=    64 NGYF=   64 NGZF=   96
   support grid    NGXF=    64 NGYF=   64 NGZF=   96
   ions per type =               2   1   1
   NGX,Y,Z   is equivalent  to a cutoff of  12.37, 12.37, 12.98 a.u.
   NGXF,Y,Z  is equivalent  to a cutoff of  24.74, 24.74, 25.97 a.u.

 SYSTEM =  Ga2BiAs                                 
 POSCAR =  Ga2 Bi1 As1                             

 Startparameter for this run:
   NWRITE =      2    write-flag & timer
   PREC   = accura    normal or accurate (medium, high low for compatibility)
   ISTART =      1    job   : 0-new  1-cont  2-samecut
   ICHARG =      2    charge: 1-file 2-atom 10-const
   ISPIN  =      1    spin polarized calculation?
   LNONCOLLINEAR =      T non collinear calculations
   LSORBIT =      T    spin-orbit coupling
   INIWAV =      1    electr: 0-lowe 1-rand  2-diag
   LASPH  =      F    aspherical Exc in radial PAW
   METAGGA=      F    non-selfconsistent MetaGGA calc.

 Electronic Relaxation 1
   ENCUT  =  500.0 eV  36.75 Ry    6.06 a.u.   7.84  7.84 11.21*2*pi/ulx,y,z
   ENINI  =  500.0     initial cutoff
   ENAUG  =  462.8 eV  augmentation charge cutoff
   NELM   =     60;   NELMIN=  2; NELMDL=  0     # of ELM steps 
   EDIFF  = 0.1E-04   stopping-criterion for ELM
   LREAL  =      F    real-space projection
   NLSPLINE    = F    spline interpolate recip. space projectors
   LCOMPAT=      F    compatible to vasp.4.4
   GGA_COMPAT  = T    GGA compatible to vasp.4.4-vasp.4.6
   LMAXPAW     = -100 max onsite density
   LMAXMIX     =    2 max onsite mixed and CHGCAR
   VOSKOWN=      0    Vosko Wilk Nusair interpolation
   ROPT   =    0.00000   0.00000   0.00000
 Ionic relaxation
   EDIFFG = -.1E-01   stopping-criterion for IOM
   NSW    =      0    number of steps for IOM
   NBLOCK =      1;   KBLOCK =      1    inner block; outer block 
   IBRION =     -1    ionic relax: 0-MD 1-quasi-New 2-CG
   NFREE  =      0    steps in history (QN), initial steepest desc. (CG)
   ISIF   =      2    stress and relaxation
   IWAVPR =     10    prediction:  0-non 1-charg 2-wave 3-comb
   ISYM   =      2    0-nonsym 1-usesym 2-fastsym
   LCORR  =      T    Harris-Foulkes like correction to forces

   POTIM  = 0.5000    time-step for ionic-motion
   TEIN   =    0.0    initial temperature
   TEBEG  =    0.0;   TEEND  =   0.0 temperature during run
   SMASS  =  -3.00    Nose mass-parameter (am)
   estimated Nose-frequenzy (Omega)   =  0.10E-29 period in steps =****** mass=  -0.423E-27a.u.
   SCALEE = 1.0000    scale energy and forces
   NPACO  =    256;   APACO  = 16.0  distance and # of slots for P.C.
   PSTRESS=    0.0 pullay stress

  Mass of Ions in am
   POMASS =  69.72208.98 74.92
  Ionic Valenz
   ZVAL   =   3.00 15.00  5.00
  Atomic Wigner-Seitz radii
   RWIGS  =  -1.00 -1.00 -1.00
  virtual crystal weights 
   VCA    =   1.00  1.00  1.00
   NELECT =      26.0000    total number of electrons
   NUPDOWN=      -1.0000    fix difference up-down

 DOS related values:
   EMIN   =  10.00;   EMAX   =-10.00  energy-range for DOS
   EFERMI =   0.00
   ISMEAR =     0;   SIGMA  =   0.05  broadening in eV -4-tet -1-fermi 0-gaus

 Electronic relaxation 2 (details)
   IALGO  =     38    algorithm
   LDIAG  =      T    sub-space diagonalisation (order eigenvalues)
   LSUBROT=      F    optimize rotation matrix (better conditioning)
   TURBO    =      0    0=normal 1=particle mesh
   IRESTART =      0    0=no restart 2=restart with 2 vectors
   NREBOOT  =      0    no. of reboots
   NMIN     =      0    reboot dimension
   EREF     =   0.00    reference energy to select bands
   IMIX   =      4    mixing-type and parameters
     AMIX     =   0.40;   BMIX     =  1.00
     AMIX_MAG =   1.60;   BMIX_MAG =  1.00
     AMIN     =   0.10
     WC   =   100.;   INIMIX=   1;  MIXPRE=   1;  MAXMIX= -45

 Intra band minimization:
   WEIMIN = 0.0000     energy-eigenvalue tresh-hold
   EBREAK =  0.63E-07  absolut break condition
   DEPER  =   0.30     relativ break condition  

   TIME   =   0.40     timestep for ELM

  volume/ion in A,a.u.               =      28.41       191.73
  Fermi-wavevector in a.u.,A,eV,Ry     =   1.001267  1.892120 13.640326  1.002536
  Thomas-Fermi vector in A             =   2.133678
 
 Write flags
   LWAVE        =      F    write WAVECAR
   LDOWNSAMPLE  =      F    k-point downsampling of WAVECAR
   LCHARG       =      F    write CHGCAR
   LVTOT        =      F    write LOCPOT, total local potential
   LVHAR        =      F    write LOCPOT, Hartree potential only
   LELF         =      F    write electronic localiz. function (ELF)
   LORBIT       =      0    0 simple, 1 ext, 2 COOP (PROOUT), +10 PAW based schemes


 Dipole corrections
   LMONO  =      F    monopole corrections only (constant potential shift)
   LDIPOL =      F    correct potential (dipole corrections)
   IDIPOL =      0    1-x, 2-y, 3-z, 4-all directions 
   EPSILON=  1.0000000 bulk dielectric constant

 Exchange correlation treatment:
   GGA     =    --    GGA type
   LEXCH   =     8    internal setting for exchange type
   VOSKOWN=      0    Vosko Wilk Nusair interpolation
   LHFCALC =     F    Hartree Fock is set to
   LHFONE  =     F    Hartree Fock one center treatment
   AEXX    =    0.0000 exact exchange contribution

 Linear response parameters
   LEPSILON=     F    determine dielectric tensor
   LRPA    =     F    only Hartree local field effects (RPA)
   LNABLA  =     F    use nabla operator in PAW spheres
   LVEL    =     F    velocity operator in full k-point grid
   LINTERFAST=   F  fast interpolation
   KINTER  =     0    interpolate to denser k-point grid
   CSHIFT  =0.1000    complex shift for real part using Kramers Kronig
   OMEGAMAX=  -1.0    maximum frequency
   DEG_THRESHOLD= 0.2000000E-02 threshold for treating states as degnerate
   RTIME   =   -0.100 relaxation time in fs
  (WPLASMAI=    0.000 imaginary part of plasma frequency in eV, 0.658/RTIME)
   DFIELD  = 0.0000000 0.0000000 0.0000000 field for delta impulse in time
 
 Orbital magnetization related:
   ORBITALMAG=     F  switch on orbital magnetization
   LCHIMAG   =     F  perturbation theory with respect to B field
   DQ        =  0.001000  dq finite difference perturbation B field
   LLRAUG    =     F  two centre corrections for induced B field



--------------------------------------------------------------------------------------------------------


 Static calculation
 charge density and potential will be updated during run
 non collinear spin polarized calculation
 Variant of blocked Davidson
 Davidson routine will perform the subspace rotation
 perform sub-space diagonalisation
    after iterative eigenvector-optimisation
 modified Broyden-mixing scheme, WC =      100.0
 initial mixing is a Kerker type mixing with AMIX =  0.4000 and BMIX =      1.0000
 Hartree-type preconditioning will be used
 using additional bands           27
 reciprocal scheme for non local part
 use partial core corrections
 calculate Harris-corrections to forces 
   (improved forces if not selfconsistent)
 use gradient corrections 
 use of overlap-Matrix (Vanderbilt PP)
 Gauss-broadening in eV      SIGMA  =   0.05


--------------------------------------------------------------------------------------------------------


  energy-cutoff  :      500.00
  volume of cell :      113.64
      direct lattice vectors                 reciprocal lattice vectors
     4.300140858  0.000000000  0.000000000     0.232550522  0.000000000  0.000000000
     0.000000000  4.300140858  0.000000000     0.000000000  0.232550522  0.000000000
     0.000000000  0.000000000  6.145861149     0.000000000  0.000000000  0.162711128

  length of vectors
     4.300140858  4.300140858  6.145861149     0.232550522  0.232550522  0.162711128


 
 old parameters found on file WAVECAR:
  energy-cutoff  :      500.00
  volume of cell :      113.64
      direct lattice vectors                 reciprocal lattice vectors
     4.300140858  0.000000000  0.000000000     0.232550522  0.000000000  0.000000000
     0.000000000  4.300140858  0.000000000     0.000000000  0.232550522  0.000000000
     0.000000000  0.000000000  6.145861149     0.000000000  0.000000000  0.162711128

  length of vectors

 
 k-points in units of 2pi/SCALE and weight: K-points alon1g high symmetry lines     
   0.11627526  0.11627526  0.00000000       0.014
   0.11295311  0.11295311  0.00000000       0.014
   0.10963096  0.10963096  0.00000000       0.014
   0.10630881  0.10630881  0.00000000       0.014
   0.10298666  0.10298666  0.00000000       0.014
   0.09966451  0.09966451  0.00000000       0.014
   0.09634236  0.09634236  0.00000000       0.014
   0.09302021  0.09302021  0.00000000       0.014
   0.08969806  0.08969806  0.00000000       0.014
   0.08637591  0.08637591  0.00000000       0.014
   0.08305376  0.08305376  0.00000000       0.014
   0.07973161  0.07973161  0.00000000       0.014
   0.07640946  0.07640946  0.00000000       0.014
   0.07308731  0.07308731  0.00000000       0.014
   0.06976516  0.06976516  0.00000000       0.014
   0.06644301  0.06644301  0.00000000       0.014
   0.06312086  0.06312086  0.00000000       0.014
   0.05979871  0.05979871  0.00000000       0.014
   0.05647656  0.05647656  0.00000000       0.014
   0.05315440  0.05315440  0.00000000       0.014
   0.04983225  0.04983225  0.00000000       0.014
   0.04651010  0.04651010  0.00000000       0.014
   0.04318795  0.04318795  0.00000000       0.014
   0.03986580  0.03986580  0.00000000       0.014
   0.03654365  0.03654365  0.00000000       0.014
   0.03322150  0.03322150  0.00000000       0.014
   0.02989935  0.02989935  0.00000000       0.014
   0.02657720  0.02657720  0.00000000       0.014
   0.02325505  0.02325505  0.00000000       0.014
   0.01993290  0.01993290  0.00000000       0.014
   0.01661075  0.01661075  0.00000000       0.014
   0.01328860  0.01328860  0.00000000       0.014
   0.00996645  0.00996645  0.00000000       0.014
   0.00664430  0.00664430  0.00000000       0.014
   0.00332215  0.00332215  0.00000000       0.014
   0.00000000  0.00000000  0.00000000       0.014
   0.00000000  0.00000000  0.00000000       0.014
   0.00000000  0.00000000  0.00232444       0.014
   0.00000000  0.00000000  0.00464889       0.014
   0.00000000  0.00000000  0.00697333       0.014
   0.00000000  0.00000000  0.00929778       0.014
   0.00000000  0.00000000  0.01162222       0.014
   0.00000000  0.00000000  0.01394667       0.014
   0.00000000  0.00000000  0.01627111       0.014
   0.00000000  0.00000000  0.01859556       0.014
   0.00000000  0.00000000  0.02092000       0.014
   0.00000000  0.00000000  0.02324445       0.014
   0.00000000  0.00000000  0.02556889       0.014
   0.00000000  0.00000000  0.02789334       0.014
   0.00000000  0.00000000  0.03021778       0.014
   0.00000000  0.00000000  0.03254223       0.014
   0.00000000  0.00000000  0.03486667       0.014
   0.00000000  0.00000000  0.03719111       0.014
   0.00000000  0.00000000  0.03951556       0.014
   0.00000000  0.00000000  0.04184000       0.014
   0.00000000  0.00000000  0.04416445       0.014
   0.00000000  0.00000000  0.04648889       0.014
   0.00000000  0.00000000  0.04881334       0.014
   0.00000000  0.00000000  0.05113778       0.014
   0.00000000  0.00000000  0.05346223       0.014
   0.00000000  0.00000000  0.05578667       0.014
   0.00000000  0.00000000  0.05811112       0.014
   0.00000000  0.00000000  0.06043556       0.014
   0.00000000  0.00000000  0.06276001       0.014
   0.00000000  0.00000000  0.06508445       0.014
   0.00000000  0.00000000  0.06740890       0.014
   0.00000000  0.00000000  0.06973334       0.014
   0.00000000  0.00000000  0.07205779       0.014
   0.00000000  0.00000000  0.07438223       0.014
   0.00000000  0.00000000  0.07670667       0.014
   0.00000000  0.00000000  0.07903112       0.014
   0.00000000  0.00000000  0.08135556       0.014
 
 k-points in reciprocal lattice and weights: K-points alon1g high symmetry lines     
   0.50000000  0.50000000  0.00000000       0.014
   0.48571429  0.48571429  0.00000000       0.014
   0.47142857  0.47142857  0.00000000       0.014
   0.45714286  0.45714286  0.00000000       0.014
   0.44285714  0.44285714  0.00000000       0.014
   0.42857143  0.42857143  0.00000000       0.014
   0.41428571  0.41428571  0.00000000       0.014
   0.40000000  0.40000000  0.00000000       0.014
   0.38571429  0.38571429  0.00000000       0.014
   0.37142857  0.37142857  0.00000000       0.014
   0.35714286  0.35714286  0.00000000       0.014
   0.34285714  0.34285714  0.00000000       0.014
   0.32857143  0.32857143  0.00000000       0.014
   0.31428571  0.31428571  0.00000000       0.014
   0.30000000  0.30000000  0.00000000       0.014
   0.28571429  0.28571429  0.00000000       0.014
   0.27142857  0.27142857  0.00000000       0.014
   0.25714286  0.25714286  0.00000000       0.014
   0.24285714  0.24285714  0.00000000       0.014
   0.22857143  0.22857143  0.00000000       0.014
   0.21428571  0.21428571  0.00000000       0.014
   0.20000000  0.20000000  0.00000000       0.014
   0.18571429  0.18571429  0.00000000       0.014
   0.17142857  0.17142857  0.00000000       0.014
   0.15714286  0.15714286  0.00000000       0.014
   0.14285714  0.14285714  0.00000000       0.014
   0.12857143  0.12857143  0.00000000       0.014
   0.11428571  0.11428571  0.00000000       0.014
   0.10000000  0.10000000  0.00000000       0.014
   0.08571429  0.08571429  0.00000000       0.014
   0.07142857  0.07142857  0.00000000       0.014
   0.05714286  0.05714286  0.00000000       0.014
   0.04285714  0.04285714  0.00000000       0.014
   0.02857143  0.02857143  0.00000000       0.014
   0.01428571  0.01428571  0.00000000       0.014
   0.00000000  0.00000000  0.00000000       0.014
   0.00000000  0.00000000  0.00000000       0.014
   0.00000000  0.00000000  0.01428571       0.014
   0.00000000  0.00000000  0.02857143       0.014
   0.00000000  0.00000000  0.04285714       0.014
   0.00000000  0.00000000  0.05714286       0.014
   0.00000000  0.00000000  0.07142857       0.014
   0.00000000  0.00000000  0.08571429       0.014
   0.00000000  0.00000000  0.10000000       0.014
   0.00000000  0.00000000  0.11428571       0.014
   0.00000000  0.00000000  0.12857143       0.014
   0.00000000  0.00000000  0.14285714       0.014
   0.00000000  0.00000000  0.15714286       0.014
   0.00000000  0.00000000  0.17142857       0.014
   0.00000000  0.00000000  0.18571429       0.014
   0.00000000  0.00000000  0.20000000       0.014
   0.00000000  0.00000000  0.21428571       0.014
   0.00000000  0.00000000  0.22857143       0.014
   0.00000000  0.00000000  0.24285714       0.014
   0.00000000  0.00000000  0.25714286       0.014
   0.00000000  0.00000000  0.27142857       0.014
   0.00000000  0.00000000  0.28571429       0.014
   0.00000000  0.00000000  0.30000000       0.014
   0.00000000  0.00000000  0.31428571       0.014
   0.00000000  0.00000000  0.32857143       0.014
   0.00000000  0.00000000  0.34285714       0.014
   0.00000000  0.00000000  0.35714286       0.014
   0.00000000  0.00000000  0.37142857       0.014
   0.00000000  0.00000000  0.38571429       0.014
   0.00000000  0.00000000  0.40000000       0.014
   0.00000000  0.00000000  0.41428571       0.014
   0.00000000  0.00000000  0.42857143       0.014
   0.00000000  0.00000000  0.44285714       0.014
   0.00000000  0.00000000  0.45714286       0.014
   0.00000000  0.00000000  0.47142857       0.014
   0.00000000  0.00000000  0.48571429       0.014
   0.00000000  0.00000000  0.50000000       0.014
 
 position of ions in fractional coordinates (direct lattice) 
   0.50000000  0.00000000  0.72573602
   0.00000000  0.50000000  0.27426400
   0.00000000  0.00000000  0.00000000
   0.50000000  0.50000000  0.50000000
 
 position of ions in cartesian coordinates  (Angst):
   2.15007043  0.00000000  4.46027279
   0.00000000  2.15007043  1.68558848
   0.00000000  0.00000000  0.00000000
   2.15007043  2.15007043  3.07293057
 
 Euler angles ALPHA=     0.0000000  BETA=     0.0000000

 transformation matrix from SAXIS to cartesian coordinates
 ---------------------------------------------------------
     1.0000000 m_x     0.0000000 m_y     0.0000000 m_z
     0.0000000 m_x     1.0000000 m_y     0.0000000 m_z
     0.0000000 m_x     0.0000000 m_y     1.0000000 m_z

 transformation matrix from cartesian coordinates to SAXIS
 ---------------------------------------------------------
     1.0000000 m_x     0.0000000 m_y     0.0000000 m_z
     0.0000000 m_x     1.0000000 m_y     0.0000000 m_z
     0.0000000 m_x     0.0000000 m_y     1.0000000 m_z




--------------------------------------------------------------------------------------------------------


 k-point  1 :   0.5000 0.5000 0.0000  plane waves:    5760
 k-point  2 :   0.4857 0.4857 0.0000  plane waves:    5740
 k-point  3 :   0.4714 0.4714 0.0000  plane waves:    5736
 k-point  4 :   0.4571 0.4571 0.0000  plane waves:    5736
 k-point  5 :   0.4429 0.4429 0.0000  plane waves:    5746
 k-point  6 :   0.4286 0.4286 0.0000  plane waves:    5778
 k-point  7 :   0.4143 0.4143 0.0000  plane waves:    5770
 k-point  8 :   0.4000 0.4000 0.0000  plane waves:    5754
 k-point  9 :   0.3857 0.3857 0.0000  plane waves:    5750
 k-point 10 :   0.3714 0.3714 0.0000  plane waves:    5750
 k-point 11 :   0.3571 0.3571 0.0000  plane waves:    5750
 k-point 12 :   0.3429 0.3429 0.0000  plane waves:    5766
 k-point 13 :   0.3286 0.3286 0.0000  plane waves:    5770
 k-point 14 :   0.3143 0.3143 0.0000  plane waves:    5774
 k-point 15 :   0.3000 0.3000 0.0000  plane waves:    5770
 k-point 16 :   0.2857 0.2857 0.0000  plane waves:    5778
 k-point 17 :   0.2714 0.2714 0.0000  plane waves:    5778
 k-point 18 :   0.2571 0.2571 0.0000  plane waves:    5774
 k-point 19 :   0.2429 0.2429 0.0000  plane waves:    5766
 k-point 20 :   0.2286 0.2286 0.0000  plane waves:    5766
 k-point 21 :   0.2143 0.2143 0.0000  plane waves:    5766
 k-point 22 :   0.2000 0.2000 0.0000  plane waves:    5754
 k-point 23 :   0.1857 0.1857 0.0000  plane waves:    5742
 k-point 24 :   0.1714 0.1714 0.0000  plane waves:    5754
 k-point 25 :   0.1571 0.1571 0.0000  plane waves:    5742
 k-point 26 :   0.1429 0.1429 0.0000  plane waves:    5766
 k-point 27 :   0.1286 0.1286 0.0000  plane waves:    5758
 k-point 28 :   0.1143 0.1143 0.0000  plane waves:    5754
 k-point 29 :   0.1000 0.1000 0.0000  plane waves:    5754
 k-point 30 :   0.0857 0.0857 0.0000  plane waves:    5754
 k-point 31 :   0.0714 0.0714 0.0000  plane waves:    5778
 k-point 32 :   0.0571 0.0571 0.0000  plane waves:    5762
 k-point 33 :   0.0429 0.0429 0.0000  plane waves:    5750
 k-point 34 :   0.0286 0.0286 0.0000  plane waves:    5762
 k-point 35 :   0.0143 0.0143 0.0000  plane waves:    5774
 k-point 36 :   0.0000 0.0000 0.0000  plane waves:    5758
 k-point 37 :   0.0000 0.0000 0.0000  plane waves:    5758
 k-point 38 :   0.0000 0.0000 0.0143  plane waves:    5758
 k-point 39 :   0.0000 0.0000 0.0286  plane waves:    5766
 k-point 40 :   0.0000 0.0000 0.0429  plane waves:    5766
 k-point 41 :   0.0000 0.0000 0.0571  plane waves:    5774
 k-point 42 :   0.0000 0.0000 0.0714  plane waves:    5758
 k-point 43 :   0.0000 0.0000 0.0857  plane waves:    5758
 k-point 44 :   0.0000 0.0000 0.1000  plane waves:    5758
 k-point 45 :   0.0000 0.0000 0.1143  plane waves:    5750
 k-point 46 :   0.0000 0.0000 0.1286  plane waves:    5750
 k-point 47 :   0.0000 0.0000 0.1429  plane waves:    5750
 k-point 48 :   0.0000 0.0000 0.1571  plane waves:    5734
 k-point 49 :   0.0000 0.0000 0.1714  plane waves:    5750
 k-point 50 :   0.0000 0.0000 0.1857  plane waves:    5750
 k-point 51 :   0.0000 0.0000 0.2000  plane waves:    5750
 k-point 52 :   0.0000 0.0000 0.2143  plane waves:    5740
 k-point 53 :   0.0000 0.0000 0.2286  plane waves:    5740
 k-point 54 :   0.0000 0.0000 0.2429  plane waves:    5748
 k-point 55 :   0.0000 0.0000 0.2571  plane waves:    5732
 k-point 56 :   0.0000 0.0000 0.2714  plane waves:    5748
 k-point 57 :   0.0000 0.0000 0.2857  plane waves:    5748
 k-point 58 :   0.0000 0.0000 0.3000  plane waves:    5748
 k-point 59 :   0.0000 0.0000 0.3143  plane waves:    5748
 k-point 60 :   0.0000 0.0000 0.3286  plane waves:    5748
 k-point 61 :   0.0000 0.0000 0.3429  plane waves:    5764
 k-point 62 :   0.0000 0.0000 0.3571  plane waves:    5756
 k-point 63 :   0.0000 0.0000 0.3714  plane waves:    5788
 k-point 64 :   0.0000 0.0000 0.3857  plane waves:    5804
 k-point 65 :   0.0000 0.0000 0.4000  plane waves:    5788
 k-point 66 :   0.0000 0.0000 0.4143  plane waves:    5788
 k-point 67 :   0.0000 0.0000 0.4286  plane waves:    5780
 k-point 68 :   0.0000 0.0000 0.4429  plane waves:    5780
 k-point 69 :   0.0000 0.0000 0.4571  plane waves:    5772
 k-point 70 :   0.0000 0.0000 0.4714  plane waves:    5772
 k-point 71 :   0.0000 0.0000 0.4857  plane waves:    5772
 k-point 72 :   0.0000 0.0000 0.5000  plane waves:    5772

 maximum and minimum number of plane-waves per node :       764      688

 maximum number of plane-waves:      5804
 maximum index in each direction: 
   IXMAX=    7   IYMAX=    7   IZMAX=   11
   IXMIN=   -8   IYMIN=   -8   IZMIN=  -11


 parallel 3D FFT for wavefunctions:
    minimum data exchange during FFTs selected (reduces bandwidth)
 parallel 3D FFT for charge:
    minimum data exchange during FFTs selected (reduces bandwidth)


 total amount of memory used by VASP MPI-rank0    56306. kBytes
=======================================================================

   base      :      30000. kBytes
   nonl-proj :      11968. kBytes
   fftplans  :       1036. kBytes
   grid      :       3932. kBytes
   one-center:         62. kBytes
   wavefun   :       9308. kBytes
 
     INWAV:  cpu time    1.0243: real time    1.4814
 Broyden mixing: mesh for mixing (old mesh)
   NGX = 15   NGY = 15   NGZ = 23
  (NGX  = 64   NGY  = 64   NGZ  = 96)
  gives a total of   5175 points

 initial charge density was supplied:
 charge density of overlapping atoms calculated
 number of electron      26.0000000 magnetization       4.0000000      4.0000000      4.0000000
 keeping initial charge density in first step


--------------------------------------------------------------------------------------------------------


 Maximum index for augmentation-charges         1186 (set IRDMAX)


--------------------------------------------------------------------------------------------------------


 First call to EWALD:  gamma=   0.366
 Maximum number of real-space cells 3x 3x 2
 Maximum number of reciprocal cells 2x 2x 3

    FEWALD:  cpu time    0.0015: real time    0.0015


--------------------------------------- Iteration      1(   1)  ---------------------------------------


    POTLOK:  cpu time    0.0705: real time    0.0729
    SETDIJ:  cpu time    0.0180: real time    0.0180
     EDDAV:  cpu time    4.0924: real time    4.0990
       DOS:  cpu time    0.0022: real time    0.0022
    CHARGE:  cpu time    0.1369: real time    0.1371
    MIXING:  cpu time    0.0033: real time    0.0033
    --------------------------------------------
      LOOP:  cpu time    4.3233: real time    4.3326

 eigenvalue-minimisations  :  8416
 total energy-change (2. order) :-0.4268687E+01  (-0.2522125E+02)
 number of electron      26.0000008 magnetization       1.1994930      1.1972407      1.2436958
 augmentation part        4.1270322 magnetization       0.5841494      0.5814290      0.5723941

 Broyden mixing:
  rms(total) = 0.12474E+01    rms(broyden)= 0.12474E+01
  rms(prec ) = 0.13539E+01
  weight for this iteration     100.00

 Free energy of the ion-electron system (eV)
  ---------------------------------------------------
  alpha Z        PSCENC =        64.20128509
  Ewald energy   TEWEN  =     -1439.91766544
  -Hartree energ DENC   =      -749.41397116
  -exchange      EXHF   =         0.00000000
  -V(xc)+E(xc)   XCENC  =        -0.63881372
  PAW double counting   =      1945.46521363    -1846.94975616
  entropy T*S    EENTRO =        -0.00217011
  eigenvalues    EBANDS =      -224.13603062
  atomic energy  EATOM  =      2247.12322143
  Solvation  Ediel_sol  =         0.00000000
  ---------------------------------------------------
  free energy    TOTEN  =        -4.26868707 eV

  energy without entropy =       -4.26651695  energy(sigma->0) =       -4.26760201


--------------------------------------------------------------------------------------------------------




--------------------------------------- Iteration      1(   2)  ---------------------------------------


    POTLOK:  cpu time    0.0450: real time    0.0469
    SETDIJ:  cpu time    0.0122: real time    0.0122
     EDDAV:  cpu time    2.6059: real time    2.6096
       DOS:  cpu time    0.0021: real time    0.0021
    CHARGE:  cpu time    0.1364: real time    0.1366
    MIXING:  cpu time    0.0053: real time    0.0053
    --------------------------------------------
      LOOP:  cpu time    2.8069: real time    2.8126

 eigenvalue-minimisations  :  6800
 total energy-change (2. order) :-0.6091474E+01  (-0.4773196E+01)
 number of electron      26.0000008 magnetization       0.4844712      0.4829667      0.5317329
 augmentation part        3.8695198 magnetization       0.2377102      0.2369488      0.2299409

 Broyden mixing:
  rms(total) = 0.41441E+00    rms(broyden)= 0.41440E+00
  rms(prec ) = 0.53799E+00
  weight for this iteration     100.00

 eigenvalues of (default mixing * dielectric matrix)
  average eigenvalue GAMMA=   0.8231
  0.8231

 Free energy of the ion-electron system (eV)
  ---------------------------------------------------
  alpha Z        PSCENC =        64.20128509
  Ewald energy   TEWEN  =     -1439.91766544
  -Hartree energ DENC   =      -754.39392620
  -exchange      EXHF   =         0.00000000
  -V(xc)+E(xc)   XCENC  =        -0.98976530
  PAW double counting   =      2191.97138096    -2095.18737510
  entropy T*S    EENTRO =        -0.00208749
  eigenvalues    EBANDS =      -223.16522932
  atomic energy  EATOM  =      2247.12322143
  Solvation  Ediel_sol  =         0.00000000
  ---------------------------------------------------
  free energy    TOTEN  =       -10.36016137 eV

  energy without entropy =      -10.35807389  energy(sigma->0) =      -10.35911763


--------------------------------------------------------------------------------------------------------




--------------------------------------- Iteration      1(   3)  ---------------------------------------


    POTLOK:  cpu time    0.0421: real time    0.0461
    SETDIJ:  cpu time    0.0117: real time    0.0117
     EDDAV:  cpu time    2.6868: real time    2.6907
       DOS:  cpu time    0.0021: real time    0.0021
    CHARGE:  cpu time    0.1330: real time    0.1331
    MIXING:  cpu time    0.0034: real time    0.0034
    --------------------------------------------
      LOOP:  cpu time    2.8790: real time    2.8870

 eigenvalue-minimisations  :  7288
 total energy-change (2. order) :-0.4751593E+00  (-0.2160549E+00)
 number of electron      26.0000008 magnetization       0.0373966      0.0368404      0.0315474
 augmentation part        3.8293208 magnetization      -0.0416905     -0.0415347     -0.0455310

 Broyden mixing:
  rms(total) = 0.19795E+00    rms(broyden)= 0.19795E+00
  rms(prec ) = 0.30399E+00
  weight for this iteration     100.00

 eigenvalues of (default mixing * dielectric matrix)
  average eigenvalue GAMMA=   0.9799
  1.1997  0.7600

 Free energy of the ion-electron system (eV)
  ---------------------------------------------------
  alpha Z        PSCENC =        64.20128509
  Ewald energy   TEWEN  =     -1439.91766544
  -Hartree energ DENC   =      -755.59691390
  -exchange      EXHF   =         0.00000000
  -V(xc)+E(xc)   XCENC  =        -1.05403132
  PAW double counting   =      2298.25069328    -2203.00581076
  entropy T*S    EENTRO =        -0.00198945
  eigenvalues    EBANDS =      -220.83410964
  atomic energy  EATOM  =      2247.12322143
  Solvation  Ediel_sol  =         0.00000000
  ---------------------------------------------------
  free energy    TOTEN  =       -10.83532070 eV

  energy without entropy =      -10.83333126  energy(sigma->0) =      -10.83432598


--------------------------------------------------------------------------------------------------------




--------------------------------------- Iteration      1(   4)  ---------------------------------------


    POTLOK:  cpu time    0.0409: real time    0.0436
    SETDIJ:  cpu time    0.0112: real time    0.0112
     EDDAV:  cpu time    2.8057: real time    2.8097
       DOS:  cpu time    0.0020: real time    0.0020
    CHARGE:  cpu time    0.1328: real time    0.1329
    MIXING:  cpu time    0.0035: real time    0.0035
    --------------------------------------------
      LOOP:  cpu time    2.9960: real time    3.0028

 eigenvalue-minimisations  :  7736
 total energy-change (2. order) :-0.3297050E-01  (-0.2178738E-01)
 number of electron      26.0000008 magnetization      -0.0608472     -0.0609905     -0.0873453
 augmentation part        3.8347909 magnetization      -0.0823742     -0.0821563     -0.0973853

 Broyden mixing:
  rms(total) = 0.97693E-01    rms(broyden)= 0.97693E-01
  rms(prec ) = 0.14684E+00
  weight for this iteration     100.00

 eigenvalues of (default mixing * dielectric matrix)
  average eigenvalue GAMMA=   1.0510
  1.5923  0.8854  0.6753

 Free energy of the ion-electron system (eV)
  ---------------------------------------------------
  alpha Z        PSCENC =        64.20128509
  Ewald energy   TEWEN  =     -1439.91766544
  -Hartree energ DENC   =      -757.13290667
  -exchange      EXHF   =         0.00000000
  -V(xc)+E(xc)   XCENC  =        -0.92281295
  PAW double counting   =      2380.60231577    -2286.89338549
  entropy T*S    EENTRO =        -0.00183198
  eigenvalues    EBANDS =      -217.92651095
  atomic energy  EATOM  =      2247.12322143
  Solvation  Ediel_sol  =         0.00000000
  ---------------------------------------------------
  free energy    TOTEN  =       -10.86829120 eV

  energy without entropy =      -10.86645922  energy(sigma->0) =      -10.86737521


--------------------------------------------------------------------------------------------------------




--------------------------------------- Iteration      1(   5)  ---------------------------------------


    POTLOK:  cpu time    0.0396: real time    0.0409
    SETDIJ:  cpu time    0.0106: real time    0.0107
     EDDAV:  cpu time    2.7015: real time    2.7052
       DOS:  cpu time    0.0021: real time    0.0021
    CHARGE:  cpu time    0.1310: real time    0.1312
    MIXING:  cpu time    0.0037: real time    0.0037
    --------------------------------------------
      LOOP:  cpu time    2.8885: real time    2.8937

 eigenvalue-minimisations  :  7392
 total energy-change (2. order) :-0.3673698E-03  (-0.3275760E-02)
 number of electron      26.0000008 magnetization      -0.0339555     -0.0340531     -0.0464602
 augmentation part        3.8417675 magnetization      -0.0223206     -0.0222660     -0.0319155

 Broyden mixing:
  rms(total) = 0.43016E-01    rms(broyden)= 0.43016E-01
  rms(prec ) = 0.58119E-01
  weight for this iteration     100.00

 eigenvalues of (default mixing * dielectric matrix)
  average eigenvalue GAMMA=   1.1069
  1.9059  1.0923  0.8062  0.6230

 Free energy of the ion-electron system (eV)
  ---------------------------------------------------
  alpha Z        PSCENC =        64.20128509
  Ewald energy   TEWEN  =     -1439.91766544
  -Hartree energ DENC   =      -758.46220463
  -exchange      EXHF   =         0.00000000
  -V(xc)+E(xc)   XCENC  =        -0.79246003
  PAW double counting   =      2426.24386897    -2333.35954846
  entropy T*S    EENTRO =        -0.00189182
  eigenvalues    EBANDS =      -215.90326367
  atomic energy  EATOM  =      2247.12322143
  Solvation  Ediel_sol  =         0.00000000
  ---------------------------------------------------
  free energy    TOTEN  =       -10.86865857 eV

  energy without entropy =      -10.86676674  energy(sigma->0) =      -10.86771266


--------------------------------------------------------------------------------------------------------




--------------------------------------- Iteration      1(   6)  ---------------------------------------


    POTLOK:  cpu time    0.0386: real time    0.0412
    SETDIJ:  cpu time    0.0109: real time    0.0109
     EDDAV:  cpu time    2.6225: real time    2.6261
       DOS:  cpu time    0.0020: real time    0.0020
    CHARGE:  cpu time    0.1312: real time    0.1314
    MIXING:  cpu time    0.0037: real time    0.0036
    --------------------------------------------
      LOOP:  cpu time    2.8089: real time    2.8153

 eigenvalue-minimisations  :  7128
 total energy-change (2. order) :-0.3331695E-02  (-0.4565836E-03)
 number of electron      26.0000008 magnetization      -0.0040478     -0.0040804     -0.0023493
 augmentation part        3.8444764 magnetization       0.0052772      0.0053182      0.0057640

 Broyden mixing:
  rms(total) = 0.16783E-01    rms(broyden)= 0.16783E-01
  rms(prec ) = 0.27313E-01
  weight for this iteration     100.00

 eigenvalues of (default mixing * dielectric matrix)
  average eigenvalue GAMMA=   1.2070
  2.2470  1.3845  1.0124  0.7703  0.6208

 Free energy of the ion-electron system (eV)
  ---------------------------------------------------
  alpha Z        PSCENC =        64.20128509
  Ewald energy   TEWEN  =     -1439.91766544
  -Hartree energ DENC   =      -758.89596275
  -exchange      EXHF   =         0.00000000
  -V(xc)+E(xc)   XCENC  =        -0.74820343
  PAW double counting   =      2432.56993068    -2339.75264420
  entropy T*S    EENTRO =        -0.00187684
  eigenvalues    EBANDS =      -215.45007478
  atomic energy  EATOM  =      2247.12322143
  Solvation  Ediel_sol  =         0.00000000
  ---------------------------------------------------
  free energy    TOTEN  =       -10.87199026 eV

  energy without entropy =      -10.87011342  energy(sigma->0) =      -10.87105184


--------------------------------------------------------------------------------------------------------




--------------------------------------- Iteration      1(   7)  ---------------------------------------


    POTLOK:  cpu time    0.0393: real time    0.0404
    SETDIJ:  cpu time    0.0097: real time    0.0097
     EDDAV:  cpu time    2.4520: real time    2.4555
       DOS:  cpu time    0.0020: real time    0.0020
    CHARGE:  cpu time    0.1311: real time    0.1313
    MIXING:  cpu time    0.0039: real time    0.0039
    --------------------------------------------
      LOOP:  cpu time    2.6380: real time    2.6427

 eigenvalue-minimisations  :  6536
 total energy-change (2. order) :-0.2418745E-02  (-0.2149045E-03)
 number of electron      26.0000008 magnetization       0.0039777      0.0040351      0.0044369
 augmentation part        3.8455571 magnetization       0.0070577      0.0070553      0.0059007

 Broyden mixing:
  rms(total) = 0.68869E-02    rms(broyden)= 0.68869E-02
  rms(prec ) = 0.10535E-01
  weight for this iteration     100.00

 eigenvalues of (default mixing * dielectric matrix)
  average eigenvalue GAMMA=   1.2130
  2.4850  1.5196  1.0882  0.8498  0.7125  0.6228

 Free energy of the ion-electron system (eV)
  ---------------------------------------------------
  alpha Z        PSCENC =        64.20128509
  Ewald energy   TEWEN  =     -1439.91766544
  -Hartree energ DENC   =      -759.28625076
  -exchange      EXHF   =         0.00000000
  -V(xc)+E(xc)   XCENC  =        -0.71013970
  PAW double counting   =      2432.92356647    -2340.05363627
  entropy T*S    EENTRO =        -0.00187606
  eigenvalues    EBANDS =      -215.15291375
  atomic energy  EATOM  =      2247.12322143
  Solvation  Ediel_sol  =         0.00000000
  ---------------------------------------------------
  free energy    TOTEN  =       -10.87440901 eV

  energy without entropy =      -10.87253295  energy(sigma->0) =      -10.87347098


--------------------------------------------------------------------------------------------------------




--------------------------------------- Iteration      1(   8)  ---------------------------------------


    POTLOK:  cpu time    0.0388: real time    0.0415
    SETDIJ:  cpu time    0.0112: real time    0.0113
     EDDAV:  cpu time    2.4927: real time    2.4960
       DOS:  cpu time    0.0020: real time    0.0020
    CHARGE:  cpu time    0.1334: real time    0.1336
    MIXING:  cpu time    0.0039: real time    0.0039
    --------------------------------------------
      LOOP:  cpu time    2.6820: real time    2.6881

 eigenvalue-minimisations  :  6608
 total energy-change (2. order) :-0.5183041E-03  (-0.4559838E-04)
 number of electron      26.0000008 magnetization       0.0053227      0.0053314      0.0024009
 augmentation part        3.8454789 magnetization       0.0054422      0.0054571      0.0022181

 Broyden mixing:
  rms(total) = 0.33500E-02    rms(broyden)= 0.33500E-02
  rms(prec ) = 0.49936E-02
  weight for this iteration     100.00

 eigenvalues of (default mixing * dielectric matrix)
  average eigenvalue GAMMA=   1.2819
  2.7393  1.8517  1.2639  1.0471  0.7911  0.6589  0.6212

 Free energy of the ion-electron system (eV)
  ---------------------------------------------------
  alpha Z        PSCENC =        64.20128509
  Ewald energy   TEWEN  =     -1439.91766544
  -Hartree energ DENC   =      -759.48461566
  -exchange      EXHF   =         0.00000000
  -V(xc)+E(xc)   XCENC  =        -0.69578784
  PAW double counting   =      2431.29333992    -2338.38040998
  entropy T*S    EENTRO =        -0.00187437
  eigenvalues    EBANDS =      -215.01242046
  atomic energy  EATOM  =      2247.12322143
  Solvation  Ediel_sol  =         0.00000000
  ---------------------------------------------------
  free energy    TOTEN  =       -10.87492731 eV

  energy without entropy =      -10.87305294  energy(sigma->0) =      -10.87399012


--------------------------------------------------------------------------------------------------------




--------------------------------------- Iteration      1(   9)  ---------------------------------------


    POTLOK:  cpu time    0.0394: real time    0.0406
    SETDIJ:  cpu time    0.0107: real time    0.0107
     EDDAV:  cpu time    2.4625: real time    2.4658
       DOS:  cpu time    0.0020: real time    0.0020
    CHARGE:  cpu time    0.1291: real time    0.1293
    MIXING:  cpu time    0.0040: real time    0.0040
    --------------------------------------------
      LOOP:  cpu time    2.6478: real time    2.6524

 eigenvalue-minimisations  :  6568
 total energy-change (2. order) :-0.1266492E-03  (-0.1226474E-04)
 number of electron      26.0000008 magnetization       0.0029243      0.0029243     -0.0016162
 augmentation part        3.8452819 magnetization       0.0032562      0.0032464     -0.0009136

 Broyden mixing:
  rms(total) = 0.17285E-02    rms(broyden)= 0.17285E-02
  rms(prec ) = 0.23231E-02
  weight for this iteration     100.00

 eigenvalues of (default mixing * dielectric matrix)
  average eigenvalue GAMMA=   1.2695
  2.8877  1.9873  1.4084  0.9458  0.9458  0.7498  0.6154  0.6154

 Free energy of the ion-electron system (eV)
  ---------------------------------------------------
  alpha Z        PSCENC =        64.20128509
  Ewald energy   TEWEN  =     -1439.91766544
  -Hartree energ DENC   =      -759.59641430
  -exchange      EXHF   =         0.00000000
  -V(xc)+E(xc)   XCENC  =        -0.68935548
  PAW double counting   =      2430.03911539    -2337.10316778
  entropy T*S    EENTRO =        -0.00187207
  eigenvalues    EBANDS =      -214.93020080
  atomic energy  EATOM  =      2247.12322143
  Solvation  Ediel_sol  =         0.00000000
  ---------------------------------------------------
  free energy    TOTEN  =       -10.87505396 eV

  energy without entropy =      -10.87318189  energy(sigma->0) =      -10.87411793


--------------------------------------------------------------------------------------------------------




--------------------------------------- Iteration      1(  10)  ---------------------------------------


    POTLOK:  cpu time    0.0506: real time    0.0544
    SETDIJ:  cpu time    0.0112: real time    0.0112
     EDDAV:  cpu time    2.3097: real time    2.3128
       DOS:  cpu time    0.0019: real time    0.0019
    CHARGE:  cpu time    0.1309: real time    0.1311
    MIXING:  cpu time    0.0044: real time    0.0044
    --------------------------------------------
      LOOP:  cpu time    2.5087: real time    2.5158

 eigenvalue-minimisations  :  5920
 total energy-change (2. order) :-0.3081611E-04  (-0.5568374E-05)
 number of electron      26.0000008 magnetization       0.0031589      0.0031420     -0.0010972
 augmentation part        3.8452619 magnetization       0.0032972      0.0033030     -0.0004204

 Broyden mixing:
  rms(total) = 0.81443E-03    rms(broyden)= 0.81442E-03
  rms(prec ) = 0.10151E-02
  weight for this iteration     100.00

 eigenvalues of (default mixing * dielectric matrix)
  average eigenvalue GAMMA=   1.2730
  2.9856  2.1721  1.4817  1.0631  1.0631  0.7846  0.7147  0.5961  0.5961

 Free energy of the ion-electron system (eV)
  ---------------------------------------------------
  alpha Z        PSCENC =        64.20128509
  Ewald energy   TEWEN  =     -1439.91766544
  -Hartree energ DENC   =      -759.64114780
  -exchange      EXHF   =         0.00000000
  -V(xc)+E(xc)   XCENC  =        -0.68683025
  PAW double counting   =      2429.55170527    -2336.60867394
  entropy T*S    EENTRO =        -0.00187141
  eigenvalues    EBANDS =      -214.89510772
  atomic energy  EATOM  =      2247.12322143
  Solvation  Ediel_sol  =         0.00000000
  ---------------------------------------------------
  free energy    TOTEN  =       -10.87508478 eV

  energy without entropy =      -10.87321337  energy(sigma->0) =      -10.87414907


--------------------------------------------------------------------------------------------------------




--------------------------------------- Iteration      1(  11)  ---------------------------------------


    POTLOK:  cpu time    0.0390: real time    0.0400
    SETDIJ:  cpu time    0.0103: real time    0.0103
     EDDAV:  cpu time    2.2965: real time    2.2995
       DOS:  cpu time    0.0020: real time    0.0020
    --------------------------------------------
      LOOP:  cpu time    2.3477: real time    2.3518

 eigenvalue-minimisations  :  5912
 total energy-change (2. order) :-0.1750702E-05  (-0.2736857E-05)
 number of electron      26.0000008 magnetization       0.0031589      0.0031420     -0.0010972
 augmentation part        3.8452619 magnetization       0.0032972      0.0033030     -0.0004204

 Free energy of the ion-electron system (eV)
  ---------------------------------------------------
  alpha Z        PSCENC =        64.20128509
  Ewald energy   TEWEN  =     -1439.91766544
  -Hartree energ DENC   =      -759.64373462
  -exchange      EXHF   =         0.00000000
  -V(xc)+E(xc)   XCENC  =        -0.68662194
  PAW double counting   =      2429.39297194    -2336.44731137
  entropy T*S    EENTRO =        -0.00187144
  eigenvalues    EBANDS =      -214.89536017
  atomic energy  EATOM  =      2247.12322143
  Solvation  Ediel_sol  =         0.00000000
  ---------------------------------------------------
  free energy    TOTEN  =       -10.87508653 eV

  energy without entropy =      -10.87321508  energy(sigma->0) =      -10.87415081


--------------------------------------------------------------------------------------------------------




 average (electrostatic) potential at core
  the test charge radii are     1.2767  1.0856  1.0621
  (the norm of the test charge is              1.0000)
       1 -14.4132       2 -14.4132       3-106.8981       4 -50.8415
 
 
 
 E-fermi :   3.6687     XC(G=0):  -8.6044     alpha+bet : -8.3023


 k-point     1 :       0.5000    0.5000    0.0000
  band No.  band energies     occupation 
      1     -20.6396      1.00000
      2     -20.6389      1.00000
      3     -20.5631      1.00000
      4     -20.5619      1.00000
      5     -17.6955      1.00000
      6     -17.6948      1.00000
      7     -17.6618      1.00000
      8     -17.6608      1.00000
      9     -17.5898      1.00000
     10     -17.5895      1.00000
     11      -7.1036      1.00000
     12      -7.0960      1.00000
     13      -7.0798      1.00000
     14      -7.0650      1.00000
     15      -3.4613      1.00000
     16      -3.4585      1.00000
     17      -3.3282      1.00000
     18      -3.3267      1.00000
     19       0.2488      1.00000
     20       0.2545      1.00000
     21       0.5378      1.00000
     22       0.5448      1.00000
     23       0.9271      1.00000
     24       0.9339      1.00000
     25       1.1842      1.00000
     26       1.1963      1.00000
     27       4.0039      0.00000
     28       4.0258      0.00000
     29       4.3140      0.00000
     30       4.3168      0.00000
     31       4.4841      0.00000
     32       4.4872      0.00000
     33       4.7523      0.00000
     34       4.7589      0.00000
     35      11.0953      0.00000
     36      11.1009      0.00000
     37      11.3048      0.00000
     38      11.3151      0.00000
     39      11.3882      0.00000
     40      11.3931      0.00000

 k-point     2 :       0.4857    0.4857    0.0000
  band No.  band energies     occupation 
      1     -20.6396      1.00000
      2     -20.6389      1.00000
      3     -20.5632      1.00000
      4     -20.5618      1.00000
      5     -17.6955      1.00000
      6     -17.6948      1.00000
      7     -17.6618      1.00000
      8     -17.6608      1.00000
      9     -17.5898      1.00000
     10     -17.5896      1.00000
     11      -7.1071      1.00000
     12      -7.0999      1.00000
     13      -7.0827      1.00000
     14      -7.0677      1.00000
     15      -3.4588      1.00000
     16      -3.4500      1.00000
     17      -3.3232      1.00000
     18      -3.3207      1.00000
     19       0.2492      1.00000
     20       0.2530      1.00000
     21       0.5301      1.00000
     22       0.5484      1.00000
     23       0.9224      1.00000
     24       0.9347      1.00000
     25       1.1716      1.00000
     26       1.2043      1.00000
     27       4.0146      0.00000
     28       4.0315      0.00000
     29       4.3047      0.00000
     30       4.3389      0.00000
     31       4.4869      0.00000
     32       4.4966      0.00000
     33       4.7650      0.00000
     34       4.7762      0.00000
     35      11.0505      0.00000
     36      11.1000      0.00000
     37      11.2604      0.00000
     38      11.3033      0.00000
     39      11.3584      0.00000
     40      11.3910      0.00000

 k-point     3 :       0.4714    0.4714    0.0000
  band No.  band energies     occupation 
      1     -20.6396      1.00000
      2     -20.6389      1.00000
      3     -20.5633      1.00000
      4     -20.5618      1.00000
      5     -17.6955      1.00000
      6     -17.6947      1.00000
      7     -17.6618      1.00000
      8     -17.6608      1.00000
      9     -17.5899      1.00000
     10     -17.5897      1.00000
     11      -7.1208      1.00000
     12      -7.1162      1.00000
     13      -7.0860      1.00000
     14      -7.0731      1.00000
     15      -3.4507      1.00000
     16      -3.4280      1.00000
     17      -3.3049      1.00000
     18      -3.3033      1.00000
     19       0.2403      1.00000
     20       0.2548      1.00000
     21       0.5182      1.00000
     22       0.5483      1.00000
     23       0.9139      1.00000
     24       0.9350      1.00000
     25       1.1440      1.00000
     26       1.2207      1.00000
     27       4.0408      0.00000
     28       4.0516      0.00000
     29       4.3117      0.00000
     30       4.3626      0.00000
     31       4.4985      0.00000
     32       4.5348      0.00000
     33       4.8061      0.00000
     34       4.8196      0.00000
     35      10.9633      0.00000
     36      11.0511      0.00000
     37      11.1809      0.00000
     38      11.2185      0.00000
     39      11.2850      0.00000
     40      11.3726      0.00000

 k-point     4 :       0.4571    0.4571    0.0000
  band No.  band energies     occupation 
      1     -20.6396      1.00000
      2     -20.6388      1.00000
      3     -20.5635      1.00000
      4     -20.5618      1.00000
      5     -17.6955      1.00000
      6     -17.6947      1.00000
      7     -17.6618      1.00000
      8     -17.6608      1.00000
      9     -17.5900      1.00000
     10     -17.5898      1.00000
     11      -7.1485      1.00000
     12      -7.1468      1.00000
     13      -7.0870      1.00000
     14      -7.0765      1.00000
     15      -3.4396      1.00000
     16      -3.3998      1.00000
     17      -3.2711      1.00000
     18      -3.2688      1.00000
     19       0.2251      1.00000
     20       0.2545      1.00000
     21       0.5036      1.00000
     22       0.5448      1.00000
     23       0.9010      1.00000
     24       0.9358      1.00000
     25       1.1163      1.00000
     26       1.2353      1.00000
     27       4.0789      0.00000
     28       4.0823      0.00000
     29       4.3372      0.00000
     30       4.3801      0.00000
     31       4.5258      0.00000
     32       4.6116      0.00000
     33       4.8716      0.00000
     34       4.8850      0.00000
     35      10.8435      0.00000
     36      10.9487      0.00000
     37      11.0655      0.00000
     38      11.0782      0.00000
     39      11.1814      0.00000
     40      11.3282      0.00000

 k-point     5 :       0.4429    0.4429    0.0000
  band No.  band energies     occupation 
      1     -20.6396      1.00000
      2     -20.6388      1.00000
      3     -20.5636      1.00000
      4     -20.5618      1.00000
      5     -17.6955      1.00000
      6     -17.6946      1.00000
      7     -17.6618      1.00000
      8     -17.6608      1.00000
      9     -17.5902      1.00000
     10     -17.5900      1.00000
     11      -7.1898      1.00000
     12      -7.1891      1.00000
     13      -7.0871      1.00000
     14      -7.0776      1.00000
     15      -3.4292      1.00000
     16      -3.3717      1.00000
     17      -3.2189      1.00000
     18      -3.2122      1.00000
     19       0.2012      1.00000
     20       0.2515      1.00000
     21       0.4884      1.00000
     22       0.5379      1.00000
     23       0.8848      1.00000
     24       0.9361      1.00000
     25       1.0939      1.00000
     26       1.2502      1.00000
     27       4.1175      0.00000
     28       4.1225      0.00000
     29       4.3789      0.00000
     30       4.4025      0.00000
     31       4.5772      0.00000
     32       4.7211      0.00000
     33       4.9579      0.00000
     34       4.9694      0.00000
     35      10.6956      0.00000
     36      10.8043      0.00000
     37      10.8978      0.00000
     38      10.9039      0.00000
     39      11.0644      0.00000
     40      11.2539      0.00000

 k-point     6 :       0.4286    0.4286    0.0000
  band No.  band energies     occupation 
      1     -20.6396      1.00000
      2     -20.6388      1.00000
      3     -20.5638      1.00000
      4     -20.5618      1.00000
      5     -17.6956      1.00000
      6     -17.6945      1.00000
      7     -17.6617      1.00000
      8     -17.6607      1.00000
      9     -17.5904      1.00000
     10     -17.5902      1.00000
     11      -7.2423      1.00000
     12      -7.2413      1.00000
     13      -7.0867      1.00000
     14      -7.0775      1.00000
     15      -3.4202      1.00000
     16      -3.3469      1.00000
     17      -3.1453      1.00000
     18      -3.1359      1.00000
     19       0.1667      1.00000
     20       0.2452      1.00000
     21       0.4744      1.00000
     22       0.5272      1.00000
     23       0.8683      1.00000
     24       0.9330      1.00000
     25       1.0837      1.00000
     26       1.2675      1.00000
     27       4.1514      0.00000
     28       4.1633      0.00000
     29       4.4361      0.00000
     30       4.4425      0.00000
     31       4.6569      0.00000
     32       4.8556      0.00000
     33       5.0630      0.00000
     34       5.0714      0.00000
     35      10.5228      0.00000
     36      10.6300      0.00000
     37      10.6898      0.00000
     38      10.7040      0.00000
     39      10.9333      0.00000
     40      11.1519      0.00000

 k-point     7 :       0.4143    0.4143    0.0000
  band No.  band energies     occupation 
      1     -20.6395      1.00000
      2     -20.6387      1.00000
      3     -20.5640      1.00000
      4     -20.5619      1.00000
      5     -17.6956      1.00000
      6     -17.6944      1.00000
      7     -17.6617      1.00000
      8     -17.6607      1.00000
      9     -17.5907      1.00000
     10     -17.5905      1.00000
     11      -7.3035      1.00000
     12      -7.3021      1.00000
     13      -7.0861      1.00000
     14      -7.0768      1.00000
     15      -3.4122      1.00000
     16      -3.3246      1.00000
     17      -3.0527      1.00000
     18      -3.0421      1.00000
     19       0.1220      1.00000
     20       0.2351      1.00000
     21       0.4616      1.00000
     22       0.5114      1.00000
     23       0.8556      1.00000
     24       0.9256      1.00000
     25       1.0908      1.00000
     26       1.2890      1.00000
     27       4.1810      0.00000
     28       4.1962      0.00000
     29       4.5046      0.00000
     30       4.5099      0.00000
     31       4.7635      0.00000
     32       5.0105      0.00000
     33       5.1861      0.00000
     34       5.1905      0.00000
     35      10.3275      0.00000
     36      10.4311      0.00000
     37      10.4643      0.00000
     38      10.4811      0.00000
     39      10.7871      0.00000
     40      11.0198      0.00000

 k-point     8 :       0.4000    0.4000    0.0000
  band No.  band energies     occupation 
      1     -20.6395      1.00000
      2     -20.6387      1.00000
      3     -20.5642      1.00000
      4     -20.5620      1.00000
      5     -17.6956      1.00000
      6     -17.6943      1.00000
      7     -17.6617      1.00000
      8     -17.6607      1.00000
      9     -17.5910      1.00000
     10     -17.5908      1.00000
     11      -7.3717      1.00000
     12      -7.3702      1.00000
     13      -7.0854      1.00000
     14      -7.0759      1.00000
     15      -3.4045      1.00000
     16      -3.3036      1.00000
     17      -2.9443      1.00000
     18      -2.9331      1.00000
     19       0.0691      1.00000
     20       0.2210      1.00000
     21       0.4484      1.00000
     22       0.4892      1.00000
     23       0.8511      1.00000
     24       0.9188      1.00000
     25       1.1142      1.00000
     26       1.3160      1.00000
     27       4.2073      0.00000
     28       4.2226      0.00000
     29       4.5877      0.00000
     30       4.5969      0.00000
     31       4.8929      0.00000
     32       5.1825      0.00000
     33       5.3252      0.00000
     34       5.3279      0.00000
     35      10.1107      0.00000
     36      10.2054      0.00000
     37      10.2302      0.00000
     38      10.2518      0.00000
     39      10.6275      0.00000
     40      10.8652      0.00000

 k-point     9 :       0.3857    0.3857    0.0000
  band No.  band energies     occupation 
      1     -20.6394      1.00000
      2     -20.6386      1.00000
      3     -20.5645      1.00000
      4     -20.5621      1.00000
      5     -17.6956      1.00000
      6     -17.6942      1.00000
      7     -17.6616      1.00000
      8     -17.6606      1.00000
      9     -17.5914      1.00000
     10     -17.5912      1.00000
     11      -7.4454      1.00000
     12      -7.4438      1.00000
     13      -7.0847      1.00000
     14      -7.0747      1.00000
     15      -3.3968      1.00000
     16      -3.2833      1.00000
     17      -2.8226      1.00000
     18      -2.8112      1.00000
     19       0.0108      1.00000
     20       0.2034      1.00000
     21       0.4329      1.00000
     22       0.4601      1.00000
     23       0.8579      1.00000
     24       0.9189      1.00000
     25       1.1501      1.00000
     26       1.3493      1.00000
     27       4.2329      0.00000
     28       4.2468      0.00000
     29       4.6844      0.00000
     30       4.6944      0.00000
     31       5.0409      0.00000
     32       5.3690      0.00000
     33       5.4778      0.00000
     34       5.4856      0.00000
     35       9.8741      0.00000
     36       9.9553      0.00000
     37       9.9940      0.00000
     38      10.0240      0.00000
     39      10.4574      0.00000
     40      10.6916      0.00000

 k-point    10 :       0.3714    0.3714    0.0000
  band No.  band energies     occupation 
      1     -20.6394      1.00000
      2     -20.6385      1.00000
      3     -20.5647      1.00000
      4     -20.5622      1.00000
      5     -17.6956      1.00000
      6     -17.6941      1.00000
      7     -17.6616      1.00000
      8     -17.6606      1.00000
      9     -17.5918      1.00000
     10     -17.5915      1.00000
     11      -7.5233      1.00000
     12      -7.5217      1.00000
     13      -7.0839      1.00000
     14      -7.0736      1.00000
     15      -3.3891      1.00000
     16      -3.2634      1.00000
     17      -2.6896      1.00000
     18      -2.6779      1.00000
     19      -0.0497      1.00000
     20       0.1835      1.00000
     21       0.4138      1.00000
     22       0.4255      1.00000
     23       0.8771      1.00000
     24       0.9302      1.00000
     25       1.1957      1.00000
     26       1.3896      1.00000
     27       4.2601      0.00000
     28       4.2724      0.00000
     29       4.7890      0.00000
     30       4.7985      0.00000
     31       5.2040      0.00000
     32       5.5676      0.00000
     33       5.6462      0.00000
     34       5.6599      0.00000
     35       9.6226      0.00000
     36       9.6928      0.00000
     37       9.7578      0.00000
     38       9.7930      0.00000
     39      10.2799      0.00000
     40      10.5064      0.00000

 k-point    11 :       0.3571    0.3571    0.0000
  band No.  band energies     occupation 
      1     -20.6393      1.00000
      2     -20.6385      1.00000
      3     -20.5650      1.00000
      4     -20.5624      1.00000
      5     -17.6956      1.00000
      6     -17.6940      1.00000
      7     -17.6616      1.00000
      8     -17.6606      1.00000
      9     -17.5922      1.00000
     10     -17.5919      1.00000
     11      -7.6041      1.00000
     12      -7.6025      1.00000
     13      -7.0833      1.00000
     14      -7.0726      1.00000
     15      -3.3816      1.00000
     16      -3.2443      1.00000
     17      -2.5468      1.00000
     18      -2.5349      1.00000
     19      -0.1097      1.00000
     20       0.1624      1.00000
     21       0.3870      1.00000
     22       0.3925      1.00000
     23       0.9081      1.00000
     24       0.9540      1.00000
     25       1.2496      1.00000
     26       1.4368      1.00000
     27       4.2907      0.00000
     28       4.3015      0.00000
     29       4.8972      0.00000
     30       4.9057      0.00000
     31       5.3791      0.00000
     32       5.7762      0.00000
     33       5.8299      0.00000
     34       5.8495      0.00000
     35       9.3624      0.00000
     36       9.4249      0.00000
     37       9.5216      0.00000
     38       9.5580      0.00000
     39      10.0961      0.00000
     40      10.3107      0.00000

 k-point    12 :       0.3429    0.3429    0.0000
  band No.  band energies     occupation 
      1     -20.6393      1.00000
      2     -20.6384      1.00000
      3     -20.5653      1.00000
      4     -20.5626      1.00000
      5     -17.6956      1.00000
      6     -17.6938      1.00000
      7     -17.6616      1.00000
      8     -17.6605      1.00000
      9     -17.5927      1.00000
     10     -17.5924      1.00000
     11      -7.6868      1.00000
     12      -7.6852      1.00000
     13      -7.0828      1.00000
     14      -7.0716      1.00000
     15      -3.3743      1.00000
     16      -3.2262      1.00000
     17      -2.3956      1.00000
     18      -2.3833      1.00000
     19      -0.1670      1.00000
     20       0.1416      1.00000
     21       0.3489      1.00000
     22       0.3691      1.00000
     23       0.9497      1.00000
     24       0.9897      1.00000
     25       1.3107      1.00000
     26       1.4911      1.00000
     27       4.3256      0.00000
     28       4.3352      0.00000
     29       5.0059      0.00000
     30       5.0133      0.00000
     31       5.5630      0.00000
     32       5.9922      0.00000
     33       6.0278      0.00000
     34       6.0525      0.00000
     35       9.0991      0.00000
     36       9.1552      0.00000
     37       9.2861      0.00000
     38       9.3212      0.00000
     39       9.9097      0.00000
     40      10.1108      0.00000

 k-point    13 :       0.3286    0.3286    0.0000
  band No.  band energies     occupation 
      1     -20.6392      1.00000
      2     -20.6383      1.00000
      3     -20.5655      1.00000
      4     -20.5628      1.00000
      5     -17.6955      1.00000
      6     -17.6937      1.00000
      7     -17.6616      1.00000
[...]
 pseudopotential strength for first ion, spin component:           3
  0.000  -0.000   0.000  -0.001  -0.000  -0.000  -0.000  -0.001   0.000   0.001  -0.001  -0.000  -0.000  -0.002   0.000   0.001
  0.000  -0.001   0.000  -0.001  -0.000  -0.000  -0.000  -0.001   0.000   0.001  -0.001  -0.000  -0.000  -0.002   0.000   0.001
 -0.000  -0.000  -0.000  -0.000   0.000  -0.000   0.000  -0.038   0.000  -0.000   0.000  -0.000   0.000  -0.072   0.000  -0.000
 -0.000  -0.001  -0.000  -0.001   0.000   0.038  -0.000  -0.000   0.038   0.000   0.000   0.072  -0.000  -0.000   0.072   0.000
  0.000   0.001   0.000   0.001   0.000  -0.000  -0.038   0.000   0.000   0.000   0.000  -0.000  -0.072   0.000   0.000   0.000
 -0.001  -0.000  -0.001  -0.000   0.000  -0.000   0.000  -0.072   0.000  -0.000   0.000  -0.000   0.000  -0.138   0.000  -0.000
 -0.000  -0.002  -0.000  -0.002   0.000   0.072  -0.000  -0.000   0.072   0.000   0.000   0.138  -0.000  -0.001   0.138   0.000
  0.000   0.001   0.000   0.001   0.000  -0.000  -0.072   0.000   0.000   0.000   0.000  -0.000  -0.138   0.000   0.000   0.000
  0.000  -0.000   0.000  -0.000   0.000   0.000   0.000   0.000  -0.000  -0.000   0.000   0.000   0.000   0.000  -0.000  -0.000
  0.000   0.000   0.000   0.000   0.000  -0.000  -0.000  -0.000   0.000   0.000   0.000  -0.001  -0.000  -0.000   0.000   0.000
 -0.000  -0.001  -0.000  -0.001   0.000   0.000  -0.000  -0.000  -0.000  -0.000   0.000   0.000  -0.000  -0.001  -0.000  -0.000
 -0.000   0.000  -0.000   0.000   0.000   0.000   0.000   0.000   0.000  -0.000   0.000   0.000   0.000   0.000   0.000  -0.001
  0.000   0.000   0.000   0.000   0.000   0.000   0.000   0.000   0.000   0.000   0.000   0.000   0.000   0.000   0.000   0.000
 pseudopotential strength for first ion, spin component:           4
  5.629   0.000   6.731   0.000   0.000   0.000   0.002   0.000   0.000   0.000   0.000   0.000   0.004   0.000   0.001   0.000
  6.731   0.000   8.040   0.000   0.000   0.000   0.003   0.000   0.001   0.000   0.000   0.000   0.004   0.000   0.001   0.000
  0.000   0.000   0.000   0.000   1.268   0.000   0.000   0.000   0.000  -0.038   2.116   0.000   0.000   0.000   0.001  -0.072
  0.002   0.000   0.003   0.000   0.000   0.000   1.274   0.000   0.000   0.000   0.000   0.000   2.127   0.000   0.000   0.000
  0.000   0.000   0.001   0.000   0.000   0.038   0.000   0.000   1.271   0.000   0.001   0.072   0.000   0.000   2.121   0.000
  0.000   0.000   0.000   0.000   2.116   0.000   0.000   0.000   0.001  -0.072   3.546   0.000   0.000   0.000   0.001  -0.138
  0.004   0.000   0.004   0.000   0.000   0.000   2.127   0.000   0.000   0.000   0.000   0.000   3.567   0.000   0.000   0.000
  0.001   0.000   0.001   0.000   0.001   0.072   0.000   0.000   2.121   0.000   0.001   0.138   0.000   0.000   3.555   0.000
  0.001   0.000   0.002   0.000   0.000   0.000   0.000   0.000   0.000   0.000   0.000   0.000   0.000   0.000   0.000   0.000
  0.000   0.000   0.000   0.000  -0.000   0.000   0.000   0.000   0.000   0.000   0.000   0.000   0.000   0.000   0.000   0.000
  0.009   0.000   0.011   0.000   0.000   0.000   0.002   0.000  -0.000   0.000   0.000   0.000   0.003   0.000  -0.000   0.000
  0.000   0.000   0.000   0.000   0.000   0.000   0.000   0.000   0.004   0.000   0.000   0.000   0.000   0.000   0.006   0.000
  0.005   0.000   0.006   0.000   0.000   0.000   0.002   0.000   0.000   0.000   0.000   0.000   0.003   0.000   0.000   0.000
 total augmentation occupancy for first ion, spin component:           1
  4.289  -1.750  -0.000   0.046   0.000   0.000  -0.015   0.000  -0.001   0.000  -0.035   0.000  -0.032
 -1.750   1.052  -0.000   0.001  -0.000  -0.000   0.006   0.000  -0.002  -0.000   0.010  -0.000   0.029
 -0.000  -0.000   2.181  -0.000  -0.089  -0.429   0.000   0.011   0.000  -0.240  -0.000  -0.005  -0.000
  0.046   0.001  -0.000   1.577  -0.000   0.000  -0.357   0.000  -0.002   0.000   0.034  -0.000   0.213
  0.000  -0.000  -0.089  -0.000   1.847   0.011   0.000  -0.341  -0.000   0.005  -0.000   0.202  -0.000
  0.000  -0.000  -0.429   0.000   0.011   0.090   0.000  -0.001  -0.000   0.047   0.000   0.000   0.000
 -0.015   0.006   0.000  -0.357   0.000   0.000   0.091   0.000   0.000  -0.000  -0.007  -0.000  -0.047
  0.000   0.000   0.011   0.000  -0.341  -0.001   0.000   0.072   0.000   0.000   0.000  -0.035   0.000
 -0.001  -0.002   0.000  -0.002  -0.000  -0.000   0.000   0.000   0.002  -0.000   0.001  -0.000  -0.000
  0.000  -0.000  -0.240   0.000   0.005   0.047  -0.000   0.000  -0.000   0.050   0.000   0.002   0.000
 -0.035   0.010  -0.000   0.034  -0.000   0.000  -0.007   0.000   0.001   0.000   0.007  -0.000   0.007
  0.000  -0.000  -0.005  -0.000   0.202   0.000  -0.000  -0.035  -0.000   0.002  -0.000   0.045  -0.000
 -0.032   0.029  -0.000   0.213  -0.000   0.000  -0.047   0.000  -0.000   0.000   0.007  -0.000   0.049
 total augmentation occupancy for first ion, spin component:           2
  0.001  -0.000   0.005   0.001   0.001  -0.001  -0.000  -0.000   0.001  -0.002  -0.000  -0.000  -0.000
 -0.000   0.000  -0.015   0.002   0.001   0.002  -0.001   0.000  -0.001   0.006  -0.000   0.000   0.001
  0.005  -0.015  -0.004   0.012   0.004   0.003  -0.002  -0.000   0.000   0.001  -0.001  -0.001   0.004
  0.001   0.002   0.012  -0.008   0.000  -0.002   0.001  -0.000   0.001  -0.001  -0.001   0.000  -0.001
  0.001   0.001   0.004   0.000   0.010  -0.002  -0.000  -0.001   0.000   0.001   0.000   0.003   0.001
 -0.001   0.002   0.003  -0.002  -0.002  -0.001   0.000   0.000  -0.000  -0.001   0.000  -0.000  -0.001
 -0.000  -0.001  -0.002   0.001  -0.000   0.000  -0.000   0.000  -0.000   0.001  -0.000  -0.000  -0.001
 -0.000   0.000  -0.000  -0.000  -0.001   0.000   0.000  -0.000   0.000   0.000  -0.000  -0.000  -0.000
  0.001  -0.001   0.000   0.001   0.000  -0.000  -0.000   0.000  -0.000  -0.000   0.000   0.000   0.000
 -0.002   0.006   0.001  -0.001   0.001  -0.001   0.001   0.000  -0.000  -0.000   0.000  -0.000  -0.000
 -0.000  -0.000  -0.001  -0.001   0.000   0.000  -0.000  -0.000   0.000   0.000  -0.000   0.000  -0.000
 -0.000   0.000  -0.001   0.000   0.003  -0.000  -0.000  -0.000   0.000  -0.000   0.000   0.000   0.000
 -0.000   0.001   0.004  -0.001   0.001  -0.001  -0.001  -0.000   0.000  -0.000  -0.000   0.000   0.000
 total augmentation occupancy for first ion, spin component:           3
  0.013  -0.013   0.000   0.008  -0.001  -0.000  -0.003   0.000  -0.000  -0.000  -0.001  -0.002   0.004
 -0.013   0.006  -0.000  -0.028   0.016   0.000   0.005  -0.002   0.001   0.000  -0.000   0.007  -0.006
  0.000  -0.000   0.007   0.001  -0.004  -0.001  -0.000  -0.002   0.000  -0.002   0.000   0.001   0.000
  0.008  -0.028   0.001  -0.015   0.014  -0.000   0.000  -0.002   0.001  -0.000  -0.001   0.002  -0.001
 -0.001   0.016  -0.004   0.014   0.024  -0.000  -0.002   0.003   0.000   0.001   0.000  -0.002   0.006
 -0.000   0.000  -0.001  -0.000  -0.000   0.000   0.000   0.000  -0.000   0.000   0.000  -0.000   0.000
 -0.003   0.005  -0.000   0.000  -0.002   0.000   0.000   0.000   0.000   0.000   0.000  -0.001  -0.001
  0.000  -0.002  -0.002  -0.002   0.003   0.000   0.000  -0.002  -0.000   0.000  -0.000   0.001  -0.001
 -0.000   0.001   0.000   0.001   0.000  -0.000   0.000  -0.000   0.000  -0.000   0.000   0.000  -0.000
 -0.000   0.000  -0.002  -0.000   0.001   0.000   0.000   0.000  -0.000   0.000   0.000  -0.000   0.000
 -0.001  -0.000   0.000  -0.001   0.000   0.000   0.000  -0.000   0.000   0.000  -0.000   0.000  -0.000
 -0.002   0.007   0.001   0.002  -0.002  -0.000  -0.001   0.001   0.000  -0.000   0.000  -0.001   0.001
  0.004  -0.006   0.000  -0.001   0.006   0.000  -0.001  -0.001  -0.000   0.000  -0.000   0.001   0.000
 total augmentation occupancy for first ion, spin component:           4
  0.000  -0.000  -0.003   0.000   0.002   0.000   0.000   0.000   0.001   0.001   0.000   0.002  -0.000
 -0.000   0.000   0.001   0.000  -0.013   0.000  -0.000   0.001  -0.000  -0.005  -0.000  -0.005   0.000
 -0.003   0.001   0.000  -0.013   0.020  -0.000   0.001   0.000   0.000   0.000  -0.001   0.002  -0.000
  0.000   0.000  -0.013   0.000  -0.003   0.000  -0.000  -0.001   0.000   0.002   0.000  -0.004  -0.000
  0.002  -0.013   0.020  -0.003  -0.001  -0.000   0.001   0.000  -0.002  -0.002   0.001   0.000  -0.002
  0.000   0.000  -0.000   0.000  -0.000   0.000   0.000  -0.000  -0.000  -0.000  -0.000   0.001   0.000
  0.000  -0.000   0.001  -0.000   0.001   0.000   0.000   0.000  -0.000  -0.000  -0.000   0.001   0.000
  0.000   0.001   0.000  -0.001   0.000  -0.000   0.000  -0.000   0.000  -0.001   0.000   0.000   0.001
  0.001  -0.000   0.000   0.000  -0.002  -0.000  -0.000   0.000  -0.000  -0.000  -0.000  -0.000   0.000
  0.001  -0.005   0.000   0.002  -0.002  -0.000  -0.000  -0.001  -0.000  -0.000   0.000   0.000  -0.000
  0.000  -0.000  -0.001   0.000   0.001  -0.000  -0.000   0.000  -0.000   0.000   0.000  -0.000   0.000
  0.002  -0.005   0.002  -0.004   0.000   0.001   0.001   0.000  -0.000   0.000  -0.000   0.000  -0.001
 -0.000   0.000  -0.000  -0.000  -0.002   0.000   0.000   0.001   0.000  -0.000   0.000  -0.001  -0.000


------------------------ aborting loop because EDIFF is reached ----------------------------------------


    CHARGE:  cpu time    0.1304: real time    0.1305
    FORLOC:  cpu time    0.0016: real time    0.0016
    FORNL :  cpu time    0.3724: real time    0.3728
    STRESS:  cpu time    0.6081: real time    0.6093
    FORCOR:  cpu time    0.0375: real time    0.0376
    FORHAR:  cpu time    0.0051: real time    0.0051
    MIXING:  cpu time    0.0039: real time    0.0039
    OFIELD:  cpu time    0.0001: real time    0.0001

  FORCE on cell =-STRESS in cart. coord.  units (eV):
  Direction    XX          YY          ZZ          XY          YZ          ZX
  --------------------------------------------------------------------------------------
  Alpha Z    64.20129    64.20129    64.20129
  Ewald    -439.74121  -439.74123  -560.43629     0.00000     0.00000    -0.00000
  Hartree   292.23598   292.23596   175.16410    -0.58504    -0.01222    -0.01216
  E(xc)    -113.90242  -113.90242  -113.29405     0.09330     0.00070     0.00070
  Local    -328.03890  -328.03871   -80.83938     2.63033     0.03396     0.03381
  n-local   161.68056   161.68044   156.86436    -1.19750    -0.01004    -0.01001
  augment   137.47540   137.47547   139.31488     0.31898     0.00042     0.00041
  Kinetic   235.49698   235.49701   224.34960    -3.21543    -0.01242    -0.01243
  Fock        0.00000     0.00000     0.00000     0.00000     0.00000     0.00000
  -------------------------------------------------------------------------------------
  Total       9.40768     9.40780     5.32451    -1.95535     0.00041     0.00032
  in kB     132.63096   132.63270    75.06577   -27.56685     0.00579     0.00448
  external pressure =      113.44 kB  Pullay stress =        0.00 kB


 VOLUME and BASIS-vectors are now :
 -----------------------------------------------------------------------------
  energy-cutoff  :      500.00
  volume of cell :      113.64
      direct lattice vectors                 reciprocal lattice vectors
     4.300140858  0.000000000  0.000000000     0.232550522  0.000000000  0.000000000
     0.000000000  4.300140858  0.000000000     0.000000000  0.232550522  0.000000000
     0.000000000  0.000000000  6.145861149     0.000000000  0.000000000  0.162711128

  length of vectors
     4.300140858  4.300140858  6.145861149     0.232550522  0.232550522  0.162711128


 FORCES acting on ions
    electron-ion (+dipol)            ewald-force                    non-local-force                 convergence-correction
 -----------------------------------------------------------------------------------------------
   -.532E-02 0.158E-02 0.472E+02   0.261E-14 -.178E-15 -.473E+02   0.187E-02 0.113E-02 -.282E+00   -.165E-03 0.613E-04 0.245E-03
   -.156E-02 0.533E-02 -.472E+02   -.168E-14 -.547E-14 0.473E+02   -.114E-02 -.188E-02 0.282E+00   -.748E-04 0.162E-03 -.254E-03
   -.821E-03 0.840E-03 0.267E-03   -.341E-14 0.631E-14 0.425E-05   0.353E-02 -.346E-02 0.594E-04   -.151E-03 0.478E-04 -.328E-03
   0.138E-02 -.139E-02 -.790E-04   0.139E-14 0.780E-16 0.515E-06   0.238E-02 -.239E-02 0.951E-05   -.923E-04 0.104E-03 0.586E-04
 -----------------------------------------------------------------------------------------------
   -.631E-02 0.636E-02 0.222E-03   -.109E-14 0.740E-15 -.355E-14   0.665E-02 -.659E-02 0.561E-04   -.483E-03 0.375E-03 -.279E-03
 
 
 POSITION                                       TOTAL-FORCE (eV/Angst)
 -----------------------------------------------------------------------------------
      2.15007      0.00000      4.46027        -0.003569      0.002738     -0.430279
      0.00000      2.15007      1.68559        -0.002732      0.003576      0.430286
      0.00000      0.00000      0.00000         0.002592     -0.002607      0.000003
      2.15007      2.15007      3.07293         0.003709     -0.003707     -0.000010
 -----------------------------------------------------------------------------------
    total drift:                               -0.000147      0.000142     -0.000001


--------------------------------------------------------------------------------------------------------



  FREE ENERGIE OF THE ION-ELECTRON SYSTEM (eV)
  ---------------------------------------------------
  free  energy   TOTEN  =       -10.87508653 eV

  energy  without entropy=      -10.87321508  energy(sigma->0) =      -10.87415081
 


--------------------------------------------------------------------------------------------------------


    POTLOK:  cpu time    0.0500: real time    0.0502


--------------------------------------------------------------------------------------------------------


     LOOP+:  cpu time   32.7583: real time   32.9525
    4ORBIT:  cpu time    0.0000: real time    0.0000

 Spin-Orbit-Coupling matrix elements

 Ion:    1  E_soc:     -0.0108344
 l=   1
     0.0000000    -0.0011477    -0.0030519
    -0.0011477     0.0000000    -0.0014008
    -0.0030519    -0.0014008     0.0000000
 l=   2
     0.0000000     0.0000009     0.0000000     0.0000012     0.0000049
     0.0000009     0.0000000    -0.0000429     0.0000868     0.0000260
     0.0000000    -0.0000429     0.0000000     0.0000668     0.0000000
     0.0000012     0.0000868     0.0000668     0.0000000     0.0000394
     0.0000049     0.0000260     0.0000000     0.0000394     0.0000000
 l=   3
     0.0000000     0.0000000     0.0000000     0.0000000     0.0000000     0.0000000     0.0000000
     0.0000000     0.0000000     0.0000000     0.0000000     0.0000000     0.0000000     0.0000000
     0.0000000     0.0000000     0.0000000     0.0000000     0.0000000     0.0000000     0.0000000
     0.0000000     0.0000000     0.0000000     0.0000000     0.0000000     0.0000000     0.0000000
     0.0000000     0.0000000     0.0000000     0.0000000     0.0000000     0.0000000     0.0000000
     0.0000000     0.0000000     0.0000000     0.0000000     0.0000000     0.0000000     0.0000000
     0.0000000     0.0000000     0.0000000     0.0000000     0.0000000     0.0000000     0.0000000

 Ion:    2  E_soc:     -0.0108345
 l=   1
     0.0000000    -0.0014009    -0.0030519
    -0.0014009     0.0000000    -0.0011477
    -0.0030519    -0.0011477     0.0000000
 l=   2
     0.0000000     0.0000012     0.0000000     0.0000009     0.0000049
     0.0000012     0.0000000     0.0000668     0.0000868     0.0000394
     0.0000000     0.0000668     0.0000000    -0.0000429     0.0000000
     0.0000009     0.0000868    -0.0000429     0.0000000     0.0000260
     0.0000049     0.0000394     0.0000000     0.0000260     0.0000000
 l=   3
     0.0000000     0.0000000     0.0000000     0.0000000     0.0000000     0.0000000     0.0000000
     0.0000000     0.0000000     0.0000000     0.0000000     0.0000000     0.0000000     0.0000000
     0.0000000     0.0000000     0.0000000     0.0000000     0.0000000     0.0000000     0.0000000
     0.0000000     0.0000000     0.0000000     0.0000000     0.0000000     0.0000000     0.0000000
     0.0000000     0.0000000     0.0000000     0.0000000     0.0000000     0.0000000     0.0000000
     0.0000000     0.0000000     0.0000000     0.0000000     0.0000000     0.0000000     0.0000000
     0.0000000     0.0000000     0.0000000     0.0000000     0.0000000     0.0000000     0.0000000

 Ion:    3  E_soc:     -1.8448176
 l=   1
     0.0000000    -0.2304729    -0.2579586
    -0.2304729     0.0000000    -0.2304727
    -0.2579586    -0.2304727     0.0000000
 l=   2
     0.0000000    -0.0134207     0.0000000    -0.0134207    -0.0539868
    -0.0134207     0.0000000    -0.0403800    -0.0136669    -0.0141247
     0.0000000    -0.0403800     0.0000000    -0.0403799     0.0000000
    -0.0134207    -0.0136669    -0.0403799     0.0000000    -0.0141248
    -0.0539868    -0.0141247     0.0000000    -0.0141248     0.0000000
 l=   3
     0.0000000     0.0000000     0.0000000     0.0000000     0.0000000     0.0000000     0.0000000
     0.0000000     0.0000000     0.0000000     0.0000000     0.0000000     0.0000000     0.0000000
     0.0000000     0.0000000     0.0000000     0.0000000     0.0000000     0.0000000     0.0000000
     0.0000000     0.0000000     0.0000000     0.0000000     0.0000000     0.0000000     0.0000000
     0.0000000     0.0000000     0.0000000     0.0000000     0.0000000     0.0000000     0.0000000
     0.0000000     0.0000000     0.0000000     0.0000000     0.0000000     0.0000000     0.0000000
     0.0000000     0.0000000     0.0000000     0.0000000     0.0000000     0.0000000     0.0000000

 Ion:    4  E_soc:     -0.0388895
 l=   1
     0.0000000    -0.0051120    -0.0092511
    -0.0051120     0.0000000    -0.0051118
    -0.0092511    -0.0051118     0.0000000
 l=   2
     0.0000000     0.0000010     0.0000000     0.0000010    -0.0000005
     0.0000010     0.0000000    -0.0000083     0.0000286     0.0000083
     0.0000000    -0.0000083     0.0000000    -0.0000083     0.0000000
     0.0000010     0.0000286    -0.0000083     0.0000000     0.0000083
    -0.0000005     0.0000083     0.0000000     0.0000083     0.0000000
 l=   3
     0.0000000     0.0000000     0.0000000     0.0000000     0.0000000     0.0000000     0.0000000
     0.0000000     0.0000000     0.0000000     0.0000000     0.0000000     0.0000000     0.0000000
     0.0000000     0.0000000     0.0000000     0.0000000     0.0000000     0.0000000     0.0000000
     0.0000000     0.0000000     0.0000000     0.0000000     0.0000000     0.0000000     0.0000000
     0.0000000     0.0000000     0.0000000     0.0000000     0.0000000     0.0000000     0.0000000
     0.0000000     0.0000000     0.0000000     0.0000000     0.0000000     0.0000000     0.0000000
     0.0000000     0.0000000     0.0000000     0.0000000     0.0000000     0.0000000     0.0000000

 total amount of memory used by VASP MPI-rank0    56306. kBytes
=======================================================================

   base      :      30000. kBytes
   nonl-proj :      11968. kBytes
   fftplans  :       1036. kBytes
   grid      :       3932. kBytes
   one-center:         62. kBytes
   wavefun   :       9308. kBytes
 
  
  
 General timing and accounting informations for this job:
 ========================================================
  
                  Total CPU time used (sec):       34.896
                            User time (sec):       34.495
                          System time (sec):        0.402
                         Elapsed time (sec):       35.875
  
                   Maximum memory used (kb):       87720.
                   Average memory used (kb):           0.
  
                          Minor page faults:        30780
                          Major page faults:            2
                 Voluntary context switches:          716
