 running on   32 total cores
 distrk:  each k-point on   32 cores,    1 groups
 distr:  one band on    8 cores,    4 groups
 using from now: INCAR     
 vasp.5.4.4.18Apr17-6-g9f103f2a35 (build Dec 27 2023 19:01:44) complex          
  
 POSCAR found type information on POSCAR  Ga Bi As
 POSCAR found :  3 types and       4 ions
 scaLAPACK will be used
 LDA part: xc-table for Pade appr. of Perdew
 found WAVECAR, reading the header
  number of bands has changed, file:    48 present:    40
  trying to continue reading WAVECAR, but it might fail
  number of k-points has changed, file:   245 present:    72
  trying to continue reading WAVECAR, but it might fail
 POSCAR, INCAR and KPOINTS ok, starting setup
 FFT: planning ...
 reading WAVECAR
 the WAVECAR file was read successfully
 entering main loop
       N       E                     dE             d eps       ncg     rms          rms(c)
DAV:   1    -0.426868706629E+01   -0.42687E+01   -0.25221E+02  8416   0.112E+02    0.125E+01
DAV:   2    -0.103601613737E+02   -0.60915E+01   -0.47732E+01  6800   0.436E+01    0.414E+00
DAV:   3    -0.108353207013E+02   -0.47516E+00   -0.21605E+00  7288   0.121E+01    0.198E+00
DAV:   4    -0.108682911965E+02   -0.32970E-01   -0.21787E-01  7736   0.307E+00    0.977E-01
DAV:   5    -0.108686585664E+02   -0.36737E-03   -0.32758E-02  7392   0.177E+00    0.430E-01
DAV:   6    -0.108719902615E+02   -0.33317E-02   -0.45658E-03  7128   0.855E-01    0.168E-01
DAV:   7    -0.108744090070E+02   -0.24187E-02   -0.21490E-03  6536   0.315E-01    0.689E-02
DAV:   8    -0.108749273111E+02   -0.51830E-03   -0.45598E-04  6608   0.137E-01    0.335E-02
DAV:   9    -0.108750539603E+02   -0.12665E-03   -0.12265E-04  6568   0.885E-02    0.173E-02
DAV:  10    -0.108750847764E+02   -0.30816E-04   -0.55684E-05  5920   0.551E-02    0.814E-03
DAV:  11    -0.108750865271E+02   -0.17507E-05   -0.27369E-05  5912   0.399E-02
   1 F= -.10875087E+02 E0= -.10874151E+02  d E =-.187144E-02  mag=     0.0029     0.0029    -0.0010
