<?xml version="1.0" encoding="ISO-8859-1"?>
<modeling>
 <generator>
  <i name="program" type="string">vasp </i>
  <i name="version" type="string">5.4.4.18Apr17-6-g9f103f2a35  </i>
  <i name="subversion" type="string">(build Dec 27 2023 19:01:44) complex            parallel </i>
  <i name="platform" type="string">LinuxIFC </i>
  <i name="date" type="string">2020 08 23 </i>
  <i name="time" type="string">17:09:17 </i>
 </generator>
 <incar>
  <i type="string" name="SYSTEM"> Ga2BiAs</i>
  <i type="string" name="PREC">accurate</i>
  <i type="logical" name="LSORBIT"> T  </i>
  <v name="SAXIS">      0.00000000      0.00000000      1.00000000</v>
  <i type="int" name="ISPIN">     2</i>
  <i type="int" name="ICHARG">     2</i>
  <i name="EDIFF">      0.00001000</i>
  <i name="EDIFFG">     -0.01000000</i>
  <i name="ENCUT">    500.00000000</i>
  <i type="int" name="ISMEAR">     0</i>
  <i name="SIGMA">      0.05000000</i>
  <i type="logical" name="LWAVE"> F  </i>
  <i type="logical" name="LCHARG"> F  </i>
  <v type="int" name="KPOINT_BSE">    -1     0     0     0</v>
 </incar>
 <structure name="primitive_cell" >
  <crystal>
   <varray name="basis" >
    <v>       4.30014086       0.00000000       0.00000000 </v>
    <v>       0.00000000       4.30014086       0.00000000 </v>
    <v>       0.00000000       0.00000000       6.14586115 </v>
   </varray>
   <i name="volume">    113.64441771 </i>
   <varray name="rec_basis" >
    <v>       0.23255052       0.00000000       0.00000000 </v>
    <v>       0.00000000       0.23255052       0.00000000 </v>
    <v>       0.00000000       0.00000000       0.16271113 </v>
   </varray>
  </crystal>
  <varray name="positions" >
   <v>      -0.50000000       0.00000000      -0.27426398 </v>
   <v>      -0.50000000      -0.50000000      -0.50000000 </v>
   <v>       0.00000000       0.00000000       0.00000000 </v>
   <v>       0.00000000      -0.50000000       0.27426400 </v>
  </varray>
 </structure>
 <varray name="primitive_index" >
  <v type="int" >        1 </v>
  <v type="int" >        4 </v>
  <v type="int" >        3 </v>
  <v type="int" >        2 </v>
 </varray>
 <kpoints>
  <generation param="listgenerated">
   <i name="divisions" type="int">      36 </i>
   <v>       0.50000000       0.50000000       0.00000000 </v>
   <v>       0.00000000       0.00000000       0.00000000 </v>
   <v>       0.00000000       0.00000000       0.50000000 </v>
  </generation>
  <varray name="kpointlist" >
   <v>       0.50000000       0.50000000       0.00000000 </v>
   <v>       0.48571429       0.48571429       0.00000000 </v>
   <v>       0.47142857       0.47142857       0.00000000 </v>
   <v>       0.45714286       0.45714286       0.00000000 </v>
   <v>       0.44285714       0.44285714       0.00000000 </v>
   <v>       0.42857143       0.42857143       0.00000000 </v>
   <v>       0.41428571       0.41428571       0.00000000 </v>
   <v>       0.40000000       0.40000000       0.00000000 </v>
   <v>       0.38571429       0.38571429       0.00000000 </v>
   <v>       0.37142857       0.37142857       0.00000000 </v>
   <v>       0.35714286       0.35714286       0.00000000 </v>
   <v>       0.34285714       0.34285714       0.00000000 </v>
   <v>       0.32857143       0.32857143       0.00000000 </v>
   <v>       0.31428571       0.31428571       0.00000000 </v>
   <v>       0.30000000       0.30000000       0.00000000 </v>
   <v>       0.28571429       0.28571429       0.00000000 </v>
   <v>       0.27142857       0.27142857       0.00000000 </v>
   <v>       0.25714286       0.25714286       0.00000000 </v>
   <v>       0.24285714       0.24285714       0.00000000 </v>
   <v>       0.22857143       0.22857143       0.00000000 </v>
   <v>       0.21428571       0.21428571       0.00000000 </v>
   <v>       0.20000000       0.20000000       0.00000000 </v>
   <v>       0.18571429       0.18571429       0.00000000 </v>
   <v>       0.17142857       0.17142857       0.00000000 </v>
   <v>       0.15714286       0.15714286       0.00000000 </v>
   <v>       0.14285714       0.14285714       0.00000000 </v>
   <v>       0.12857143       0.12857143       0.00000000 </v>
   <v>       0.11428571       0.11428571       0.00000000 </v>
   <v>       0.10000000       0.10000000       0.00000000 </v>
   <v>       0.08571429       0.08571429       0.00000000 </v>
   <v>       0.07142857       0.07142857       0.00000000 </v>
   <v>       0.05714286       0.05714286       0.00000000 </v>
   <v>       0.04285714       0.04285714       0.00000000 </v>
   <v>       0.02857143       0.02857143       0.00000000 </v>
   <v>       0.01428571       0.01428571       0.00000000 </v>
   <v>       0.00000000       0.00000000       0.00000000 </v>
   <v>       0.00000000       0.00000000       0.00000000 </v>
   <v>       0.00000000       0.00000000       0.01428571 </v>
   <v>       0.00000000       0.00000000       0.02857143 </v>
   <v>       0.00000000       0.00000000       0.04285714 </v>
   <v>       0.00000000       0.00000000       0.05714286 </v>
   <v>       0.00000000       0.00000000       0.07142857 </v>
   <v>       0.00000000       0.00000000       0.08571429 </v>
   <v>       0.00000000       0.00000000       0.10000000 </v>
   <v>       0.00000000       0.00000000       0.11428571 </v>
   <v>       0.00000000       0.00000000       0.12857143 </v>
   <v>       0.00000000       0.00000000       0.14285714 </v>
   <v>       0.00000000       0.00000000       0.15714286 </v>
   <v>       0.00000000       0.00000000       0.17142857 </v>
   <v>       0.00000000       0.00000000       0.18571429 </v>
   <v>       0.00000000       0.00000000       0.20000000 </v>
   <v>       0.00000000       0.00000000       0.21428571 </v>
   <v>       0.00000000       0.00000000       0.22857143 </v>
   <v>       0.00000000       0.00000000       0.24285714 </v>
   <v>       0.00000000       0.00000000       0.25714286 </v>
   <v>       0.00000000       0.00000000       0.27142857 </v>
   <v>       0.00000000       0.00000000       0.28571429 </v>
   <v>       0.00000000       0.00000000       0.30000000 </v>
   <v>       0.00000000       0.00000000       0.31428571 </v>
   <v>       0.00000000       0.00000000       0.32857143 </v>
   <v>       0.00000000       0.00000000       0.34285714 </v>
   <v>       0.00000000       0.00000000       0.35714286 </v>
   <v>       0.00000000       0.00000000       0.37142857 </v>
   <v>       0.00000000       0.00000000       0.38571429 </v>
   <v>       0.00000000       0.00000000       0.40000000 </v>
   <v>       0.00000000       0.00000000       0.41428571 </v>
   <v>       0.00000000       0.00000000       0.42857143 </v>
   <v>       0.00000000       0.00000000       0.44285714 </v>
   <v>       0.00000000       0.00000000       0.45714286 </v>
   <v>       0.00000000       0.00000000       0.47142857 </v>
   <v>       0.00000000       0.00000000       0.48571429 </v>
   <v>       0.00000000       0.00000000       0.50000000 </v>
  </varray>
  <varray name="weights" >
   <v>       0.01388889 </v>
   <v>       0.01388889 </v>
   <v>       0.01388889 </v>
   <v>       0.01388889 </v>
   <v>       0.01388889 </v>
   <v>       0.01388889 </v>
   <v>       0.01388889 </v>
   <v>       0.01388889 </v>
   <v>       0.01388889 </v>
   <v>       0.01388889 </v>
   <v>       0.01388889 </v>
   <v>       0.01388889 </v>
   <v>       0.01388889 </v>
   <v>       0.01388889 </v>
   <v>       0.01388889 </v>
   <v>       0.01388889 </v>
   <v>       0.01388889 </v>
   <v>       0.01388889 </v>
   <v>       0.01388889 </v>
   <v>       0.01388889 </v>
   <v>       0.01388889 </v>
   <v>       0.01388889 </v>
   <v>       0.01388889 </v>
   <v>       0.01388889 </v>
   <v>       0.01388889 </v>
   <v>       0.01388889 </v>
   <v>       0.01388889 </v>
   <v>       0.01388889 </v>
   <v>       0.01388889 </v>
   <v>       0.01388889 </v>
   <v>       0.01388889 </v>
   <v>       0.01388889 </v>
   <v>       0.01388889 </v>
   <v>       0.01388889 </v>
   <v>       0.01388889 </v>
   <v>       0.01388889 </v>
   <v>       0.01388889 </v>
   <v>       0.01388889 </v>
   <v>       0.01388889 </v>
   <v>       0.01388889 </v>
   <v>       0.01388889 </v>
   <v>       0.01388889 </v>
   <v>       0.01388889 </v>
   <v>       0.01388889 </v>
   <v>       0.01388889 </v>
   <v>       0.01388889 </v>
   <v>       0.01388889 </v>
   <v>       0.01388889 </v>
   <v>       0.01388889 </v>
   <v>       0.01388889 </v>
   <v>       0.01388889 </v>
   <v>       0.01388889 </v>
   <v>       0.01388889 </v>
   <v>       0.01388889 </v>
   <v>       0.01388889 </v>
   <v>       0.01388889 </v>
   <v>       0.01388889 </v>
   <v>       0.01388889 </v>
   <v>       0.01388889 </v>
   <v>       0.01388889 </v>
   <v>       0.01388889 </v>
   <v>       0.01388889 </v>
   <v>       0.01388889 </v>
   <v>       0.01388889 </v>
   <v>       0.01388889 </v>
   <v>       0.01388889 </v>
   <v>       0.01388889 </v>
   <v>       0.01388889 </v>
   <v>       0.01388889 </v>
   <v>       0.01388889 </v>
   <v>       0.01388889 </v>
   <v>       0.01388889 </v>
  </varray>
 </kpoints>
 <parameters>
  <separator name="general" >
   <i type="string" name="SYSTEM">Ga2BiAs</i>
   <i type="logical" name="LCOMPAT"> F  </i>
  </separator>
  <separator name="electronic" >
   <i type="string" name="PREC">accura</i>
   <i name="ENMAX">    500.00000000</i>
   <i name="ENAUG">    462.75800000</i>
   <i name="EDIFF">      0.00001000</i>
   <i type="int" name="IALGO">    38</i>
   <i type="int" name="IWAVPR">    10</i>
   <i type="int" name="NBANDS">    40</i>
   <i name="NELECT">     26.00000000</i>
   <i type="int" name="TURBO">     0</i>
   <i type="int" name="IRESTART">     0</i>
   <i type="int" name="NREBOOT">     0</i>
   <i type="int" name="NMIN">     0</i>
   <i name="EREF">      0.00000000</i>
   <separator name="electronic smearing" >
    <i type="int" name="ISMEAR">     0</i>
    <i name="SIGMA">      0.05000000</i>
    <i name="KSPACING">      0.50000000</i>
    <i type="logical" name="KGAMMA"> T  </i>
   </separator>
   <separator name="electronic projectors" >
    <i type="logical" name="LREAL"> F  </i>
    <v name="ROPT">      0.00000000      0.00000000      0.00000000</v>
    <i type="int" name="LMAXPAW">  -100</i>
    <i type="int" name="LMAXMIX">     2</i>
    <i type="logical" name="NLSPLINE"> F  </i>
   </separator>
   <separator name="electronic startup" >
    <i type="int" name="ISTART">     1</i>
    <i type="int" name="ICHARG">     2</i>
    <i type="int" name="INIWAV">     1</i>
   </separator>
   <separator name="electronic spin" >
    <i type="int" name="ISPIN">     1</i>
    <i type="logical" name="LNONCOLLINEAR"> T  </i>
    <v name="MAGMOM">      1.00000000      1.00000000      1.00000000      1.00000000      1.00000000      1.00000000      1.00000000      1.00000000      1.00000000      1.00000000      1.00000000      1.00000000</v>
    <i name="NUPDOWN">     -1.00000000</i>
    <i type="logical" name="LSORBIT"> T  </i>
    <v name="SAXIS">      0.00000000      0.00000000      1.00000000</v>
    <i type="logical" name="LSPIRAL"> F  </i>
    <v name="QSPIRAL">      0.00000000      0.00000000      0.00000000</v>
    <i type="logical" name="LZEROZ"> F  </i>
   </separator>
   <separator name="electronic exchange-correlation" >
    <i type="logical" name="LASPH"> F  </i>
    <i type="logical" name="LMETAGGA"> F  </i>
   </separator>
   <separator name="electronic convergence" >
    <i type="int" name="NELM">    60</i>
    <i type="int" name="NELMDL">     0</i>
    <i type="int" name="NELMIN">     2</i>
    <i name="ENINI">    500.00000000</i>
    <separator name="electronic convergence detail" >
     <i type="logical" name="LDIAG"> T  </i>
     <i type="logical" name="LSUBROT"> F  </i>
     <i name="WEIMIN">      0.00000000</i>
     <i name="EBREAK">      0.00000006</i>
     <i name="DEPER">      0.30000000</i>
     <i type="int" name="NRMM">     4</i>
     <i name="TIME">      0.40000000</i>
    </separator>
   </separator>
   <separator name="electronic mixer" >
    <i name="AMIX">      0.40000000</i>
    <i name="BMIX">      1.00000000</i>
    <i name="AMIN">      0.10000000</i>
    <i name="AMIX_MAG">      1.60000000</i>
    <i name="BMIX_MAG">      1.00000000</i>
    <separator name="electronic mixer details" >
     <i type="int" name="IMIX">     4</i>
     <i type="logical" name="MIXFIRST"> F  </i>
     <i type="int" name="MAXMIX">   -45</i>
     <i name="WC">    100.00000000</i>
     <i type="int" name="INIMIX">     1</i>
     <i type="int" name="MIXPRE">     1</i>
     <i type="int" name="MREMOVE">     5</i>
    </separator>
   </separator>
   <separator name="electronic dipolcorrection" >
    <i type="logical" name="LDIPOL"> F  </i>
    <i type="logical" name="LMONO"> F  </i>
    <i type="int" name="IDIPOL">     0</i>
    <i name="EPSILON">      1.00000000</i>
    <v name="DIPOL">   -100.00000000   -100.00000000   -100.00000000</v>
    <i name="EFIELD">      0.00000000</i>
   </separator>
  </separator>
  <separator name="grids" >
   <i type="int" name="NGX">    32</i>
   <i type="int" name="NGY">    32</i>
   <i type="int" name="NGZ">    48</i>
   <i type="int" name="NGXF">    64</i>
   <i type="int" name="NGYF">    64</i>
   <i type="int" name="NGZF">    96</i>
   <i type="logical" name="ADDGRID"> F  </i>
  </separator>
  <separator name="ionic" >
   <i type="int" name="NSW">     0</i>
   <i type="int" name="IBRION">    -1</i>
   <i type="int" name="MDALGO">     0</i>
   <i type="int" name="ISIF">     2</i>
   <i name="PSTRESS">      0.00000000</i>
   <i name="EDIFFG">     -0.01000000</i>
   <i type="int" name="NFREE">     0</i>
   <i name="POTIM">      0.50000000</i>
   <i name="SMASS">     -3.00000000</i>
   <i name="SCALEE">      1.00000000</i>
  </separator>
  <separator name="ionic md" >
   <i name="TEBEG">      0.00010000</i>
   <i name="TEEND">      0.00010000</i>
   <i type="int" name="NBLOCK">     1</i>
   <i type="int" name="KBLOCK">     1</i>
   <i type="int" name="NPACO">   256</i>
   <i name="APACO">     16.00000000</i>
  </separator>
  <separator name="symmetry" >
   <i type="int" name="ISYM">     2</i>
   <i name="SYMPREC">      0.00001000</i>
  </separator>
  <separator name="dos" >
   <i type="int" name="LORBIT">     0</i>
   <v name="RWIGS">     -1.00000000     -1.00000000     -1.00000000</v>
   <i type="int" name="NEDOS">   301</i>
   <i name="EMIN">     10.00000000</i>
   <i name="EMAX">    -10.00000000</i>
   <i name="EFERMI">      0.00000000</i>
  </separator>
  <separator name="writing" >
   <i type="int" name="NWRITE">     2</i>
   <i type="logical" name="LWAVE"> F  </i>
   <i type="logical" name="LDOWNSAMPLE"> F  </i>
   <i type="logical" name="LCHARG"> F  </i>
   <i type="logical" name="LPARD"> F  </i>
   <i type="logical" name="LVTOT"> F  </i>
   <i type="logical" name="LVHAR"> F  </i>
   <i type="logical" name="LELF"> F  </i>
   <i type="logical" name="LOPTICS"> F  </i>
   <v name="STM">      0.00000000      0.00000000      0.00000000      0.00000000      0.00000000      0.00000000      0.00000000</v>
  </separator>
  <separator name="performance" >
   <i type="int" name="NPAR">     4</i>
   <i type="int" name="NSIM">     4</i>
   <i type="int" name="NBLK">    -1</i>
   <i type="logical" name="LPLANE"> T  </i>
   <i type="logical" name="LSCALAPACK"> T  </i>
   <i type="logical" name="LSCAAWARE"> F  </i>
   <i type="logical" name="LSCALU"> F  </i>
   <i type="logical" name="LASYNC"> F  </i>
   <i type="logical" name="LORBITALREAL"> F  </i>
  </separator>
  <separator name="miscellaneous" >
   <i type="int" name="IDIOT">     3</i>
   <i type="int" name="ISPECIAL">     0</i>
   <i type="logical" name="LMUSIC"> F  </i>
   <v name="POMASS">     69.72300000    208.98000000     74.92200000</v>
   <v name="DARWINR">      0.00000000      0.00000000      0.00000000</v>
   <v name="DARWINV">      1.00000000      1.00000000      1.00000000</v>
   <i type="logical" name="LCORR"> T  </i>
  </separator>
  <i type="logical" name="GGA_COMPAT"> T  </i>
  <i type="logical" name="LBERRY"> F  </i>
  <i type="int" name="ICORELEVEL">     0</i>
  <i type="logical" name="LDAU"> F  </i>
  <i type="int" name="I_CONSTRAINED_M">     0</i>
  <separator name="electronic exchange-correlation" >
   <i type="string" name="GGA">--</i>
   <i type="int" name="VOSKOWN">     0</i>
   <i type="logical" name="LHFCALC"> F  </i>
   <i type="string" name="PRECFOCK"></i>
   <i type="logical" name="LSYMGRAD"> F  </i>
   <i type="logical" name="LHFONE"> F  </i>
   <i type="logical" name="LRHFCALC"> F  </i>
   <i type="logical" name="LTHOMAS"> F  </i>
   <i type="logical" name="LMODELHF"> F  </i>
   <i name="ENCUT4O">     -1.00000000</i>
   <i type="int" name="EXXOEP">     0</i>
   <i type="int" name="FOURORBIT">     0</i>
   <i name="AEXX">      0.00000000</i>
   <i name="HFALPHA">      0.00000000</i>
   <i name="MCALPHA">      0.00000000</i>
   <i name="ALDAX">      1.00000000</i>
   <i name="AGGAX">      1.00000000</i>
   <i name="ALDAC">      1.00000000</i>
   <i name="AGGAC">      1.00000000</i>
   <i type="int" name="NKREDX">     1</i>
   <i type="int" name="NKREDY">     1</i>
   <i type="int" name="NKREDZ">     1</i>
   <i type="logical" name="SHIFTRED"> F  </i>
   <i type="logical" name="ODDONLY"> F  </i>
   <i type="logical" name="EVENONLY"> F  </i>
   <i type="int" name="LMAXFOCK">     0</i>
   <i type="int" name="NMAXFOCKAE">     0</i>
   <i type="logical" name="LFOCKAEDFT"> F  </i>
   <i name="HFSCREEN">      0.00000000</i>
   <i name="HFSCREENC">      0.00000000</i>
   <i type="int" name="NBANDSGWLOW">     0</i>
  </separator>
  <separator name="vdW DFT" >
   <i type="logical" name="LUSE_VDW"> F  </i>
   <i name="Zab_VDW">     -0.84910000</i>
   <i name="PARAM1">      0.12340000</i>
   <i name="PARAM2">      1.00000000</i>
   <i name="PARAM3">      0.00000000</i>
  </separator>
  <separator name="model GW" >
   <i type="int" name="MODEL_GW">     0</i>
   <i name="MODEL_EPS0">     17.04666266</i>
   <i name="MODEL_ALPHA">      1.00000000</i>
  </separator>
  <separator name="linear response parameters" >
   <i type="logical" name="LEPSILON"> F  </i>
   <i type="logical" name="LRPA"> F  </i>
   <i type="logical" name="LNABLA"> F  </i>
   <i type="logical" name="LVEL"> F  </i>
   <i type="int" name="KINTER">     0</i>
   <i name="CSHIFT">      0.10000000</i>
   <i name="OMEGAMAX">     -1.00000000</i>
   <i name="DEG_THRESHOLD">      0.00200000</i>
   <i name="RTIME">     -0.10000000</i>
   <i name="WPLASMAI">      0.00000000</i>
   <v name="DFIELD">      0.00000000      0.00000000      0.00000000</v>
   <v name="WPLASMA">      0.00000000      0.00000000      0.00000000      0.00000000      0.00000000      0.00000000      0.00000000      0.00000000      0.00000000</v>
  </separator>
  <separator name="orbital magnetization" >
   <i type="logical" name="NUCIND"> F  </i>
   <v name="MAGPOS">      0.00000000      0.00000000      0.00000000</v>
   <i type="logical" name="LNICSALL"> T  </i>
   <i type="logical" name="ORBITALMAG"> F  </i>
   <i type="logical" name="LMAGBLOCH"> F  </i>
   <i type="logical" name="LCHIMAG"> F  </i>
   <i type="logical" name="LGAUGE"> T  </i>
   <i type="int" name="MAGATOM">     0</i>
   <v name="MAGDIPOL">      0.00000000      0.00000000      0.00000000</v>
   <v name="AVECCONST">      0.00000000      0.00000000      0.00000000</v>
  </separator>
  <separator name="response functions" >
   <i type="logical" name="LADDER"> F  </i>
   <i type="logical" name="LRPAFORCE"> F  </i>
   <i type="logical" name="LFXC"> F  </i>
   <i type="logical" name="LHARTREE"> T  </i>
   <i type="int" name="IBSE">     0</i>
   <v type="int" name="KPOINT">    -1     0     0     0</v>
   <i type="logical" name="LTCTE"> F  </i>
   <i type="logical" name="LTETE"> F  </i>
   <i type="logical" name="LTRIPLET"> F  </i>
   <i type="logical" name="LFXCEPS"> F  </i>
   <i type="logical" name="LFXHEG"> F  </i>
   <i type="int" name="NATURALO">     2</i>
   <i type="logical" name="L2ORDER"> F  </i>
   <i type="logical" name="LMP2LT"> F  </i>
   <i type="logical" name="LUSEW"> F  </i>
   <i name="ENCUTGW">     -2.00000000</i>
   <i name="ENCUTGWSOFT">     -2.00000000</i>
   <i name="ENCUTLF">     -1.00000000</i>
   <i type="int" name="LMAXMP2">    -1</i>
   <i name="SCISSOR">      0.00000000</i>
   <i type="int" name="NOMEGA">     0</i>
   <i type="int" name="NOMEGAR">     0</i>
   <i type="int" name="NBANDSGW">    -1</i>
   <i type="int" name="NBANDSO">    -1</i>
   <i type="int" name="NBANDSV">    -1</i>
   <i type="int" name="NELM">     1</i>
   <i type="int" name="NELMHF">     1</i>
   <i type="int" name="DIM">     3</i>
   <i type="int" name="ANTIRES">     0</i>
   <i name="OMEGAMAX">    -30.00000000</i>
   <i name="OMEGAMIN">    -30.00000000</i>
   <i name="OMEGATL">   -200.00000000</i>
   <i type="int" name="OMEGAGRID">   140</i>
   <i name="CSHIFT">     -0.10000000</i>
   <i type="logical" name="SELFENERGY"> F  </i>
   <i type="logical" name="LSPECTRAL"> F  </i>
   <i type="logical" name="LSPECTRALGW"> F  </i>
   <i type="logical" name="LSINGLES"> F  </i>
   <i type="logical" name="LFERMIGW"> F  </i>
   <i type="logical" name="ODDONLYGW"> F  </i>
   <i type="logical" name="EVENONLYGW"> F  </i>
   <i type="int" name="NKREDLFX">     1</i>
   <i type="int" name="NKREDLFY">     1</i>
   <i type="int" name="NKREDLFZ">     1</i>
   <i type="int" name="MAXMEM">  2800</i>
   <i type="int" name="TELESCOPE">     0</i>
   <i type="int" name="TAUPAR">     1</i>
   <i type="int" name="OMEGAPAR">    -1</i>
   <i name="LAMBDA">      1.00000000</i>
  </separator>
  <separator name="External order field" >
   <i name="OFIELD_KAPPA">      0.00000000</i>
   <v name="OFIELD_K">      0.00000000      0.00000000      0.00000000</v>
   <i name="OFIELD_Q6_NEAR">      0.00000000</i>
   <i name="OFIELD_Q6_FAR">      0.00000000</i>
   <i name="OFIELD_A">      0.00000000</i>
  </separator>
 </parameters>
 <atominfo>
  <atoms>       4 </atoms>
  <types>       3 </types>
  <array name="atoms" >
   <dimension dim="1">ion</dimension>
   <field type="string">element</field>
   <field type="int">atomtype</field>
   <set>
    <rc><c>Ga</c><c>   1</c></rc>
    <rc><c>Ga</c><c>   1</c></rc>
    <rc><c>Bi</c><c>   2</c></rc>
    <rc><c>As</c><c>   3</c></rc>
   </set>
  </array>
  <array name="atomtypes" >
   <dimension dim="1">type</dimension>
   <field type="int">atomspertype</field>
   <field type="string">element</field>
   <field>mass</field>
   <field>valence</field>
   <field type="string">pseudopotential</field>
   <set>
    <rc><c>   2</c><c>Ga</c><c>     69.72300000</c><c>      3.00000000</c><c>  PAW_PBE Ga 08Apr2002                  </c></rc>
    <rc><c>   1</c><c>Bi</c><c>    208.98000000</c><c>     15.00000000</c><c>  PAW_PBE Bi_d 06Sep2000                </c></rc>
    <rc><c>   1</c><c>As</c><c>     74.92200000</c><c>      5.00000000</c><c>  PAW_PBE As 22Sep2009                  </c></rc>
   </set>
  </array>
 </atominfo>
 <structure name="initialpos" >
  <crystal>
   <varray name="basis" >
    <v>       4.30014086       0.00000000       0.00000000 </v>
    <v>       0.00000000       4.30014086       0.00000000 </v>
    <v>       0.00000000       0.00000000       6.14586115 </v>
   </varray>
   <i name="volume">    113.64441771 </i>
   <varray name="rec_basis" >
    <v>       0.23255052       0.00000000       0.00000000 </v>
    <v>       0.00000000       0.23255052       0.00000000 </v>
    <v>       0.00000000       0.00000000       0.16271113 </v>
   </varray>
  </crystal>
  <varray name="positions" >
   <v>       0.50000000       0.00000000       0.72573602 </v>
   <v>       0.00000000       0.50000000       0.27426400 </v>
   <v>       0.00000000       0.00000000       0.00000000 </v>
   <v>       0.50000000       0.50000000       0.50000000 </v>
  </varray>
 </structure>
 <calculation>
  <scstep>
   <time name="dav">    4.09    4.10</time>
   <time name="total">    4.32    4.33</time>
   <energy>
    <i name="alphaZ">     64.20128509 </i>
    <i name="ewald">  -1439.91766544 </i>
    <i name="hartreedc">   -749.41397116 </i>
    <i name="XCdc">     -0.63881372 </i>
    <i name="pawpsdc">   1945.46521363 </i>
    <i name="pawaedc">  -1846.94975616 </i>
    <i name="eentropy">     -0.00217011 </i>
    <i name="bandstr">   -224.13603062 </i>
    <i name="atom">   2247.12322143 </i>
    <i name="e_fr_energy">     -4.26868707 </i>
    <i name="e_wo_entrp">     -4.26651695 </i>
    <i name="e_0_energy">     -4.26760201 </i>
   </energy>
  </scstep>
  <scstep>
   <time name="dav">    2.61    2.61</time>
   <time name="total">    2.81    2.81</time>
   <energy>
    <i name="e_fr_energy">    -10.36016137 </i>
    <i name="e_wo_entrp">    -10.35807389 </i>
    <i name="e_0_energy">    -10.35911763 </i>
   </energy>
  </scstep>
  <scstep>
   <time name="dav">    2.69    2.69</time>
   <time name="total">    2.88    2.89</time>
   <energy>
    <i name="e_fr_energy">    -10.83532070 </i>
    <i name="e_wo_entrp">    -10.83333126 </i>
    <i name="e_0_energy">    -10.83432598 </i>
   </energy>
  </scstep>
  <scstep>
   <time name="dav">    2.81    2.81</time>
   <time name="total">    3.00    3.00</time>
   <energy>
    <i name="e_fr_energy">    -10.86829120 </i>
    <i name="e_wo_entrp">    -10.86645922 </i>
    <i name="e_0_energy">    -10.86737521 </i>
   </energy>
  </scstep>
  <scstep>
   <time name="dav">    2.70    2.71</time>
   <time name="total">    2.89    2.89</time>
   <energy>
    <i name="e_fr_energy">    -10.86865857 </i>
    <i name="e_wo_entrp">    -10.86676674 </i>
    <i name="e_0_energy">    -10.86771266 </i>
   </energy>
  </scstep>
  <scstep>
   <time name="dav">    2.62    2.63</time>
   <time name="total">    2.81    2.82</time>
   <energy>
    <i name="e_fr_energy">    -10.87199026 </i>
    <i name="e_wo_entrp">    -10.87011342 </i>
    <i name="e_0_energy">    -10.87105184 </i>
   </energy>
  </scstep>
  <scstep>
   <time name="dav">    2.45    2.46</time>
   <time name="total">    2.64    2.64</time>
   <energy>
    <i name="e_fr_energy">    -10.87440901 </i>
    <i name="e_wo_entrp">    -10.87253295 </i>
    <i name="e_0_energy">    -10.87347098 </i>
   </energy>
  </scstep>
  <scstep>
   <time name="dav">    2.49    2.50</time>
   <time name="total">    2.68    2.69</time>
   <energy>
    <i name="e_fr_energy">    -10.87492731 </i>
    <i name="e_wo_entrp">    -10.87305294 </i>
    <i name="e_0_energy">    -10.87399012 </i>
   </energy>
  </scstep>
  <scstep>
   <time name="dav">    2.46    2.47</time>
   <time name="total">    2.65    2.65</time>
   <energy>
    <i name="e_fr_energy">    -10.87505396 </i>
    <i name="e_wo_entrp">    -10.87318189 </i>
    <i name="e_0_energy">    -10.87411793 </i>
   </energy>
  </scstep>
  <scstep>
   <time name="dav">    2.31    2.31</time>
   <time name="total">    2.51    2.52</time>
   <energy>
    <i name="e_fr_energy">    -10.87508478 </i>
    <i name="e_wo_entrp">    -10.87321337 </i>
    <i name="e_0_energy">    -10.87414907 </i>
   </energy>
  </scstep>
  <scstep>
   <time name="dav">    2.30    2.30</time>
   <time name="total">    2.35    2.35</time>
   <energy>
    <i name="alphaZ">     64.20128509 </i>
    <i name="ewald">  -1439.91766544 </i>
    <i name="hartreedc">   -759.64373462 </i>
    <i name="XCdc">     -0.68662194 </i>
    <i name="pawpsdc">   2429.39297194 </i>
    <i name="pawaedc">  -2336.44731137 </i>
    <i name="eentropy">     -0.00187144 </i>
    <i name="bandstr">   -214.89536017 </i>
    <i name="atom">   2247.12322143 </i>
    <i name="e_fr_energy">    -10.87508653 </i>
    <i name="e_wo_entrp">    -10.87321508 </i>
    <i name="e_0_energy">    -10.87415081 </i>
   </energy>
  </scstep>
  <structure>
   <crystal>
    <varray name="basis" >
     <v>       4.30014086       0.00000000       0.00000000 </v>
     <v>       0.00000000       4.30014086       0.00000000 </v>
     <v>       0.00000000       0.00000000       6.14586115 </v>
    </varray>
    <i name="volume">    113.64441771 </i>
    <varray name="rec_basis" >
     <v>       0.23255052       0.00000000       0.00000000 </v>
     <v>       0.00000000       0.23255052       0.00000000 </v>
     <v>       0.00000000       0.00000000       0.16271113 </v>
    </varray>
   </crystal>
   <varray name="positions" >
    <v>       0.50000000       0.00000000       0.72573602 </v>
    <v>       0.00000000       0.50000000       0.27426400 </v>
    <v>       0.00000000       0.00000000       0.00000000 </v>
    <v>       0.50000000       0.50000000       0.50000000 </v>
   </varray>
  </structure>
  <varray name="forces" >
   <v>      -0.00356880       0.00273842      -0.43027888 </v>
   <v>      -0.00273226       0.00357585       0.43028622 </v>
   <v>       0.00259242      -0.00260708       0.00000273 </v>
   <v>       0.00370864      -0.00370719      -0.00001006 </v>
  </varray>
  <varray name="stress" >
   <v>     132.63096309     -27.56685268       0.00448242 </v>
   <v>     -27.56685288     132.63269829       0.00557055 </v>
   <v>       0.00469532       0.00578565      75.06577226 </v>
  </varray>
  <energy>
   <i name="e_fr_energy">    -10.87508653 </i>
   <i name="e_wo_entrp">    -10.87415081 </i>
   <i name="e_0_energy">     -0.00187144 </i>
  </energy>
  <time name="totalsc">   32.76   32.95</time>
  <eigenvalues>
   <array>
    <dimension dim="1">band</dimension>
    <dimension dim="2">kpoint</dimension>
    <dimension dim="3">spin</dimension>
    <field>eigene</field>
    <field>occ</field>
    <set>
     <set comment="spin 1">
      <set comment="kpoint 1">
       <r>  -20.6396    1.0000 </r>
       <r>  -20.6389    1.0000 </r>
       <r>  -20.5631    1.0000 </r>
       <r>  -20.5619    1.0000 </r>
       <r>  -17.6955    1.0000 </r>
       <r>  -17.6948    1.0000 </r>
       <r>  -17.6618    1.0000 </r>
       <r>  -17.6608    1.0000 </r>
       <r>  -17.5898    1.0000 </r>
       <r>  -17.5895    1.0000 </r>
       <r>   -7.1036    1.0000 </r>
       <r>   -7.0960    1.0000 </r>
       <r>   -7.0798    1.0000 </r>
       <r>   -7.0650    1.0000 </r>
       <r>   -3.4613    1.0000 </r>
       <r>   -3.4585    1.0000 </r>
       <r>   -3.3282    1.0000 </r>
       <r>   -3.3267    1.0000 </r>
       <r>    0.2488    1.0000 </r>
       <r>    0.2545    1.0000 </r>
       <r>    0.5378    1.0000 </r>
       <r>    0.5448    1.0000 </r>
       <r>    0.9271    1.0000 </r>
       <r>    0.9339    1.0000 </r>
       <r>    1.1842    1.0000 </r>
       <r>    1.1963    1.0000 </r>
       <r>    4.0039    0.0000 </r>
       <r>    4.0258    0.0000 </r>
       <r>    4.3140    0.0000 </r>
       <r>    4.3168    0.0000 </r>
       <r>    4.4841    0.0000 </r>
       <r>    4.4872    0.0000 </r>
       <r>    4.7523    0.0000 </r>
       <r>    4.7589    0.0000 </r>
       <r>   11.0953    0.0000 </r>
       <r>   11.1009    0.0000 </r>
       <r>   11.3048    0.0000 </r>
       <r>   11.3151    0.0000 </r>
       <r>   11.3882    0.0000 </r>
       <r>   11.3931    0.0000 </r>
      </set>
      <set comment="kpoint 2">
       <r>  -20.6396    1.0000 </r>
       <r>  -20.6389    1.0000 </r>
       <r>  -20.5632    1.0000 </r>
       <r>  -20.5618    1.0000 </r>
       <r>  -17.6955    1.0000 </r>
       <r>  -17.6948    1.0000 </r>
       <r>  -17.6618    1.0000 </r>
       <r>  -17.6608    1.0000 </r>
       <r>  -17.5898    1.0000 </r>
       <r>  -17.5896    1.0000 </r>
       <r>   -7.1071    1.0000 </r>
       <r>   -7.0999    1.0000 </r>
       <r>   -7.0827    1.0000 </r>
       <r>   -7.0677    1.0000 </r>
       <r>   -3.4588    1.0000 </r>
       <r>   -3.4500    1.0000 </r>
       <r>   -3.3232    1.0000 </r>
       <r>   -3.3207    1.0000 </r>
       <r>    0.2492    1.0000 </r>
       <r>    0.2530    1.0000 </r>
       <r>    0.5301    1.0000 </r>
       <r>    0.5484    1.0000 </r>
       <r>    0.9224    1.0000 </r>
       <r>    0.9347    1.0000 </r>
       <r>    1.1716    1.0000 </r>
       <r>    1.2043    1.0000 </r>
       <r>    4.0146    0.0000 </r>
       <r>    4.0315    0.0000 </r>
       <r>    4.3047    0.0000 </r>
       <r>    4.3389    0.0000 </r>
       <r>    4.4869    0.0000 </r>
       <r>    4.4966    0.0000 </r>
       <r>    4.7650    0.0000 </r>
       <r>    4.7762    0.0000 </r>
       <r>   11.0505    0.0000 </r>
       <r>   11.1000    0.0000 </r>
       <r>   11.2604    0.0000 </r>
       <r>   11.3033    0.0000 </r>
       <r>   11.3584    0.0000 </r>
       <r>   11.3910    0.0000 </r>
      </set>
      <set comment="kpoint 3">
       <r>  -20.6396    1.0000 </r>
       <r>  -20.6389    1.0000 </r>
       <r>  -20.5633    1.0000 </r>
       <r>  -20.5618    1.0000 </r>
       <r>  -17.6955    1.0000 </r>
       <r>  -17.6947    1.0000 </r>
       <r>  -17.6618    1.0000 </r>
       <r>  -17.6608    1.0000 </r>
       <r>  -17.5899    1.0000 </r>
       <r>  -17.5897    1.0000 </r>
       <r>   -7.1208    1.0000 </r>
       <r>   -7.1162    1.0000 </r>
       <r>   -7.0860    1.0000 </r>
       <r>   -7.0731    1.0000 </r>
       <r>   -3.4507    1.0000 </r>
       <r>   -3.4280    1.0000 </r>
       <r>   -3.3049    1.0000 </r>
       <r>   -3.3033    1.0000 </r>
       <r>    0.2403    1.0000 </r>
       <r>    0.2548    1.0000 </r>
       <r>    0.5182    1.0000 </r>
       <r>    0.5483    1.0000 </r>
       <r>    0.9139    1.0000 </r>
       <r>    0.9350    1.0000 </r>
       <r>    1.1440    1.0000 </r>
       <r>    1.2207    1.0000 </r>
       <r>    4.0408    0.0000 </r>
       <r>    4.0516    0.0000 </r>
       <r>    4.3117    0.0000 </r>
       <r>    4.3626    0.0000 </r>
       <r>    4.4985    0.0000 </r>
       <r>    4.5348    0.0000 </r>
       <r>    4.8061    0.0000 </r>
       <r>    4.8196    0.0000 </r>
       <r>   10.9633    0.0000 </r>
       <r>   11.0511    0.0000 </r>
       <r>   11.1809    0.0000 </r>
       <r>   11.2185    0.0000 </r>
       <r>   11.2850    0.0000 </r>
       <r>   11.3726    0.0000 </r>
      </set>
      <set comment="kpoint 4">
       <r>  -20.6396    1.0000 </r>
       <r>  -20.6388    1.0000 </r>
       <r>  -20.5635    1.0000 </r>
       <r>  -20.5618    1.0000 </r>
       <r>  -17.6955    1.0000 </r>
       <r>  -17.6947    1.0000 </r>
       <r>  -17.6618    1.0000 </r>
       <r>  -17.6608    1.0000 </r>
       <r>  -17.5900    1.0000 </r>
       <r>  -17.5898    1.0000 </r>
       <r>   -7.1485    1.0000 </r>
       <r>   -7.1468    1.0000 </r>
       <r>   -7.0870    1.0000 </r>
       <r>   -7.0765    1.0000 </r>
       <r>   -3.4396    1.0000 </r>
       <r>   -3.3998    1.0000 </r>
       <r>   -3.2711    1.0000 </r>
       <r>   -3.2688    1.0000 </r>
       <r>    0.2251    1.0000 </r>
       <r>    0.2545    1.0000 </r>
       <r>    0.5036    1.0000 </r>
       <r>    0.5448    1.0000 </r>
       <r>    0.9010    1.0000 </r>
       <r>    0.9358    1.0000 </r>
       <r>    1.1163    1.0000 </r>
       <r>    1.2353    1.0000 </r>
       <r>    4.0789    0.0000 </r>
       <r>    4.0823    0.0000 </r>
       <r>    4.3372    0.0000 </r>
       <r>    4.3801    0.0000 </r>
       <r>    4.5258    0.0000 </r>
       <r>    4.6116    0.0000 </r>
       <r>    4.8716    0.0000 </r>
       <r>    4.8850    0.0000 </r>
       <r>   10.8435    0.0000 </r>
       <r>   10.9487    0.0000 </r>
       <r>   11.0655    0.0000 </r>
       <r>   11.0782    0.0000 </r>
       <r>   11.1814    0.0000 </r>
       <r>   11.3282    0.0000 </r>
      </set>
      <set comment="kpoint 5">
       <r>  -20.6396    1.0000 </r>
       <r>  -20.6388    1.0000 </r>
       <r>  -20.5636    1.0000 </r>
       <r>  -20.5618    1.0000 </r>
       <r>  -17.6955    1.0000 </r>
       <r>  -17.6946    1.0000 </r>
       <r>  -17.6618    1.0000 </r>
       <r>  -17.6608    1.0000 </r>
       <r>  -17.5902    1.0000 </r>
       <r>  -17.5900    1.0000 </r>
       <r>   -7.1898    1.0000 </r>
       <r>   -7.1891    1.0000 </r>
       <r>   -7.0871    1.0000 </r>
       <r>   -7.0776    1.0000 </r>
       <r>   -3.4292    1.0000 </r>
       <r>   -3.3717    1.0000 </r>
       <r>   -3.2189    1.0000 </r>
       <r>   -3.2122    1.0000 </r>
       <r>    0.2012    1.0000 </r>
       <r>    0.2515    1.0000 </r>
       <r>    0.4884    1.0000 </r>
       <r>    0.5379    1.0000 </r>
       <r>    0.8848    1.0000 </r>
       <r>    0.9361    1.0000 </r>
       <r>    1.0939    1.0000 </r>
       <r>    1.2502    1.0000 </r>
       <r>    4.1175    0.0000 </r>
       <r>    4.1225    0.0000 </r>
       <r>    4.3789    0.0000 </r>
       <r>    4.4025    0.0000 </r>
       <r>    4.5772    0.0000 </r>
       <r>    4.7211    0.0000 </r>
       <r>    4.9579    0.0000 </r>
       <r>    4.9694    0.0000 </r>
       <r>   10.6956    0.0000 </r>
       <r>   10.8043    0.0000 </r>
       <r>   10.8978    0.0000 </r>
       <r>   10.9039    0.0000 </r>
       <r>   11.0644    0.0000 </r>
       <r>   11.2539    0.0000 </r>
      </set>
      <set comment="kpoint 6">
       <r>  -20.6396    1.0000 </r>
       <r>  -20.6388    1.0000 </r>
       <r>  -20.5638    1.0000 </r>
       <r>  -20.5618    1.0000 </r>
       <r>  -17.6956    1.0000 </r>
       <r>  -17.6945    1.0000 </r>
       <r>  -17.6617    1.0000 </r>
       <r>  -17.6607    1.0000 </r>
       <r>  -17.5904    1.0000 </r>
       <r>  -17.5902    1.0000 </r>
       <r>   -7.2423    1.0000 </r>
       <r>   -7.2413    1.0000 </r>
       <r>   -7.0867    1.0000 </r>
       <r>   -7.0775    1.0000 </r>
       <r>   -3.4202    1.0000 </r>
       <r>   -3.3469    1.0000 </r>
       <r>   -3.1453    1.0000 </r>
       <r>   -3.1359    1.0000 </r>
       <r>    0.1667    1.0000 </r>
       <r>    0.2452    1.0000 </r>
       <r>    0.4744    1.0000 </r>
       <r>    0.5272    1.0000 </r>
       <r>    0.8683    1.0000 </r>
       <r>    0.9330    1.0000 </r>
       <r>    1.0837    1.0000 </r>
       <r>    1.2675    1.0000 </r>
       <r>    4.1514    0.0000 </r>
       <r>    4.1633    0.0000 </r>
       <r>    4.4361    0.0000 </r>
       <r>    4.4425    0.0000 </r>
       <r>    4.6569    0.0000 </r>
       <r>    4.8556    0.0000 </r>
       <r>    5.0630    0.0000 </r>
       <r>    5.0714    0.0000 </r>
       <r>   10.5228    0.0000 </r>
       <r>   10.6300    0.0000 </r>
       <r>   10.6898    0.0000 </r>
       <r>   10.7040    0.0000 </r>
       <r>   10.9333    0.0000 </r>
       <r>   11.1519    0.0000 </r>
      </set>
      <set comment="kpoint 7">
       <r>  -20.6395    1.0000 </r>
       <r>  -20.6387    1.0000 </r>
       <r>  -20.5640    1.0000 </r>
       <r>  -20.5619    1.0000 </r>
       <r>  -17.6956    1.0000 </r>
       <r>  -17.6944    1.0000 </r>
       <r>  -17.6617    1.0000 </r>
       <r>  -17.6607    1.0000 </r>
       <r>  -17.5907    1.0000 </r>
       <r>  -17.5905    1.0000 </r>
       <r>   -7.3035    1.0000 </r>
       <r>   -7.3021    1.0000 </r>
       <r>   -7.0861    1.0000 </r>
       <r>   -7.0768    1.0000 </r>
       <r>   -3.4122    1.0000 </r>
       <r>   -3.3246    1.0000 </r>
       <r>   -3.0527    1.0000 </r>
       <r>   -3.0421    1.0000 </r>
       <r>    0.1220    1.0000 </r>
       <r>    0.2351    1.0000 </r>
       <r>    0.4616    1.0000 </r>
       <r>    0.5114    1.0000 </r>
       <r>    0.8556    1.0000 </r>
       <r>    0.9256    1.0000 </r>
       <r>    1.0908    1.0000 </r>
       <r>    1.2890    1.0000 </r>
       <r>    4.1810    0.0000 </r>
       <r>    4.1962    0.0000 </r>
       <r>    4.5046    0.0000 </r>
       <r>    4.5099    0.0000 </r>
       <r>    4.7635    0.0000 </r>
       <r>    5.0105    0.0000 </r>
       <r>    5.1861    0.0000 </r>
       <r>    5.1905    0.0000 </r>
       <r>   10.3275    0.0000 </r>
       <r>   10.4311    0.0000 </r>
       <r>   10.4643    0.0000 </r>
       <r>   10.4811    0.0000 </r>
       <r>   10.7871    0.0000 </r>
       <r>   11.0198    0.0000 </r>
      </set>
      <set comment="kpoint 8">
       <r>  -20.6395    1.0000 </r>
       <r>  -20.6387    1.0000 </r>
       <r>  -20.5642    1.0000 </r>
       <r>  -20.5620    1.0000 </r>
       <r>  -17.6956    1.0000 </r>
       <r>  -17.6943    1.0000 </r>
       <r>  -17.6617    1.0000 </r>
       <r>  -17.6607    1.0000 </r>
       <r>  -17.5910    1.0000 </r>
       <r>  -17.5908    1.0000 </r>
       <r>   -7.3717    1.0000 </r>
       <r>   -7.3702    1.0000 </r>
       <r>   -7.0854    1.0000 </r>
       <r>   -7.0759    1.0000 </r>
       <r>   -3.4045    1.0000 </r>
       <r>   -3.3036    1.0000 </r>
       <r>   -2.9443    1.0000 </r>
       <r>   -2.9331    1.0000 </r>
       <r>    0.0691    1.0000 </r>
       <r>    0.2210    1.0000 </r>
       <r>    0.4484    1.0000 </r>
       <r>    0.4892    1.0000 </r>
       <r>    0.8511    1.0000 </r>
       <r>    0.9188    1.0000 </r>
       <r>    1.1142    1.0000 </r>
       <r>    1.3160    1.0000 </r>
       <r>    4.2073    0.0000 </r>
       <r>    4.2226    0.0000 </r>
       <r>    4.5877    0.0000 </r>
       <r>    4.5969    0.0000 </r>
       <r>    4.8929    0.0000 </r>
       <r>    5.1825    0.0000 </r>
       <r>    5.3252    0.0000 </r>
       <r>    5.3279    0.0000 </r>
       <r>   10.1107    0.0000 </r>
       <r>   10.2054    0.0000 </r>
       <r>   10.2302    0.0000 </r>
       <r>   10.2518    0.0000 </r>
       <r>   10.6275    0.0000 </r>
       <r>   10.8652    0.0000 </r>
      </set>
      <set comment="kpoint 9">
       <r>  -20.6394    1.0000 </r>
       <r>  -20.6386    1.0000 </r>
       <r>  -20.5645    1.0000 </r>
       <r>  -20.5621    1.0000 </r>
       <r>  -17.6956    1.0000 </r>
       <r>  -17.6942    1.0000 </r>
       <r>  -17.6616    1.0000 </r>
       <r>  -17.6606    1.0000 </r>
       <r>  -17.5914    1.0000 </r>
       <r>  -17.5912    1.0000 </r>
       <r>   -7.4454    1.0000 </r>
       <r>   -7.4438    1.0000 </r>
       <r>   -7.0847    1.0000 </r>
       <r>   -7.0747    1.0000 </r>
       <r>   -3.3968    1.0000 </r>
       <r>   -3.2833    1.0000 </r>
       <r>   -2.8226    1.0000 </r>
       <r>   -2.8112    1.0000 </r>
       <r>    0.0108    1.0000 </r>
       <r>    0.2034    1.0000 </r>
       <r>    0.4329    1.0000 </r>
       <r>    0.4601    1.0000 </r>
       <r>    0.8579    1.0000 </r>
       <r>    0.9189    1.0000 </r>
       <r>    1.1501    1.0000 </r>
       <r>    1.3493    1.0000 </r>
       <r>    4.2329    0.0000 </r>
       <r>    4.2468    0.0000 </r>
       <r>    4.6844    0.0000 </r>
       <r>    4.6944    0.0000 </r>
       <r>    5.0409    0.0000 </r>
       <r>    5.3690    0.0000 </r>
       <r>    5.4778    0.0000 </r>
       <r>    5.4856    0.0000 </r>
       <r>    9.8741    0.0000 </r>
       <r>    9.9553    0.0000 </r>
       <r>    9.9940    0.0000 </r>
       <r>   10.0240    0.0000 </r>
       <r>   10.4574    0.0000 </r>
       <r>   10.6916    0.0000 </r>
      </set>
      <set comment="kpoint 10">
       <r>  -20.6394    1.0000 </r>
       <r>  -20.6385    1.0000 </r>
       <r>  -20.5647    1.0000 </r>
       <r>  -20.5622    1.0000 </r>
       <r>  -17.6956    1.0000 </r>
       <r>  -17.6941    1.0000 </r>
       <r>  -17.6616    1.0000 </r>
       <r>  -17.6606    1.0000 </r>
       <r>  -17.5918    1.0000 </r>
       <r>  -17.5915    1.0000 </r>
       <r>   -7.5233    1.0000 </r>
       <r>   -7.5217    1.0000 </r>
       <r>   -7.0839    1.0000 </r>
       <r>   -7.0736    1.0000 </r>
       <r>   -3.3891    1.0000 </r>
       <r>   -3.2634    1.0000 </r>
       <r>   -2.6896    1.0000 </r>
       <r>   -2.6779    1.0000 </r>
       <r>   -0.0497    1.0000 </r>
       <r>    0.1835    1.0000 </r>
       <r>    0.4138    1.0000 </r>
       <r>    0.4255    1.0000 </r>
       <r>    0.8771    1.0000 </r>
       <r>    0.9302    1.0000 </r>
       <r>    1.1957    1.0000 </r>
       <r>    1.3896    1.0000 </r>
       <r>    4.2601    0.0000 </r>
       <r>    4.2724    0.0000 </r>
       <r>    4.7890    0.0000 </r>
       <r>    4.7985    0.0000 </r>
       <r>    5.2040    0.0000 </r>
       <r>    5.5676    0.0000 </r>
       <r>    5.6462    0.0000 </r>
       <r>    5.6599    0.0000 </r>
       <r>    9.6226    0.0000 </r>
       <r>    9.6928    0.0000 </r>
       <r>    9.7578    0.0000 </r>
       <r>    9.7930    0.0000 </r>
       <r>   10.2799    0.0000 </r>
       <r>   10.5064    0.0000 </r>
      </set>
      <set comment="kpoint 11">
       <r>  -20.6393    1.0000 </r>
       <r>  -20.6385    1.0000 </r>
       <r>  -20.5650    1.0000 </r>
       <r>  -20.5624    1.0000 </r>
       <r>  -17.6956    1.0000 </r>
       <r>  -17.6940    1.0000 </r>
       <r>  -17.6616    1.0000 </r>
       <r>  -17.6606    1.0000 </r>
       <r>  -17.5922    1.0000 </r>
       <r>  -17.5919    1.0000 </r>
       <r>   -7.6041    1.0000 </r>
       <r>   -7.6025    1.0000 </r>
       <r>   -7.0833    1.0000 </r>
       <r>   -7.0726    1.0000 </r>
       <r>   -3.3816    1.0000 </r>
       <r>   -3.2443    1.0000 </r>
       <r>   -2.5468    1.0000 </r>
       <r>   -2.5349    1.0000 </r>
       <r>   -0.1097    1.0000 </r>
       <r>    0.1624    1.0000 </r>
       <r>    0.3870    1.0000 </r>
       <r>    0.3925    1.0000 </r>
       <r>    0.9081    1.0000 </r>
       <r>    0.9540    1.0000 </r>
       <r>    1.2496    1.0000 </r>
       <r>    1.4368    1.0000 </r>
       <r>    4.2907    0.0000 </r>
       <r>    4.3015    0.0000 </r>
       <r>    4.8972    0.0000 </r>
       <r>    4.9057    0.0000 </r>
       <r>    5.3791    0.0000 </r>
       <r>    5.7762    0.0000 </r>
       <r>    5.8299    0.0000 </r>
       <r>    5.8495    0.0000 </r>
       <r>    9.3624    0.0000 </r>
       <r>    9.4249    0.0000 </r>
       <r>    9.5216    0.0000 </r>
       <r>    9.5580    0.0000 </r>
       <r>   10.0961    0.0000 </r>
       <r>   10.3107    0.0000 </r>
      </set>
      <set comment="kpoint 12">
       <r>  -20.6393    1.0000 </r>
       <r>  -20.6384    1.0000 </r>
       <r>  -20.5653    1.0000 </r>
       <r>  -20.5626    1.0000 </r>
       <r>  -17.6956    1.0000 </r>
       <r>  -17.6938    1.0000 </r>
       <r>  -17.6616    1.0000 </r>
       <r>  -17.6605    1.0000 </r>
       <r>  -17.5927    1.0000 </r>
       <r>  -17.5924    1.0000 </r>
       <r>   -7.6868    1.0000 </r>
       <r>   -7.6852    1.0000 </r>
       <r>   -7.0828    1.0000 </r>
       <r>   -7.0716    1.0000 </r>
       <r>   -3.3743    1.0000 </r>
       <r>   -3.2262    1.0000 </r>
       <r>   -2.3956    1.0000 </r>
       <r>   -2.3833    1.0000 </r>
       <r>   -0.1670    1.0000 </r>
       <r>    0.1416    1.0000 </r>
       <r>    0.3489    1.0000 </r>
       <r>    0.3691    1.0000 </r>
       <r>    0.9497    1.0000 </r>
       <r>    0.9897    1.0000 </r>
       <r>    1.3107    1.0000 </r>
       <r>    1.4911    1.0000 </r>
       <r>    4.3256    0.0000 </r>
       <r>    4.3352    0.0000 </r>
       <r>    5.0059    0.0000 </r>
       <r>    5.0133    0.0000 </r>
       <r>    5.5630    0.0000 </r>
       <r>    5.9922    0.0000 </r>
       <r>    6.0278    0.0000 </r>
       <r>    6.0525    0.0000 </r>
       <r>    9.0991    0.0000 </r>
       <r>    9.1552    0.0000 </r>
       <r>    9.2861    0.0000 </r>
       <r>    9.3212    0.0000 </r>
       <r>    9.9097    0.0000 </r>
       <r>   10.1108    0.0000 </r>
      </set>
      <set comment="kpoint 13">
       <r>  -20.6392    1.0000 </r>
       <r>  -20.6383    1.0000 </r>
       <r>  -20.5655    1.0000 </r>
       <r>  -20.5628    1.0000 </r>
       <r>  -17.6955    1.0000 </r>
       <r>  -17.6937    1.0000 </r>
       <r>  -17.6616    1.0000 </r>
       <r>  -17.6605    1.0000 </r>
       <r>  -17.5932    1.0000 </r>
       <r>  -17.5928    1.0000 </r>
       <r>   -7.7703    1.0000 </r>
       <r>   -7.7688    1.0000 </r>
       <r>   -7.0824    1.0000 </r>
       <r>   -7.0709    1.0000 </r>
       <r>   -3.3676    1.0000 </r>
       <r>   -3.2096    1.0000 </r>
       <r>   -2.2372    1.0000 </r>
       <r>   -2.2245    1.0000 </r>
       <r>   -0.2196    1.0000 </r>
       <r>    0.1226    1.0000 </r>
       <r>    0.3125    1.0000 </r>
       <r>    0.3468    1.0000 </r>
       <r>    1.0004    1.0000 </r>
       <r>    1.0361    1.0000 </r>
       <r>    1.3784    1.0000 </r>
       <r>    1.5522    1.0000 </r>
       <r>    4.3653    0.0000 </r>
       <r>    4.3741    0.0000 </r>
       <r>    5.1122    0.0000 </r>
       <r>    5.1185    0.0000 </r>
       <r>    5.7521    0.0000 </r>
       <r>    6.2126    0.0000 </r>
       <r>    6.2385    0.0000 </r>
       <r>    6.2669    0.0000 </r>
       <r>    8.8364    0.0000 </r>
       <r>    8.8864    0.0000 </r>
       <r>    9.0539    0.0000 </r>
       <r>    9.0857    0.0000 </r>
       <r>    9.7219    0.0000 </r>
       <r>    9.9116    0.0000 </r>
      </set>
      <set comment="kpoint 14">
       <r>  -20.6391    1.0000 </r>
       <r>  -20.6383    1.0000 </r>
       <r>  -20.5658    1.0000 </r>
       <r>  -20.5630    1.0000 </r>
       <r>  -17.6955    1.0000 </r>
       <r>  -17.6936    1.0000 </r>
       <r>  -17.6616    1.0000 </r>
       <r>  -17.6605    1.0000 </r>
       <r>  -17.5937    1.0000 </r>
       <r>  -17.5932    1.0000 </r>
       <r>   -7.8540    1.0000 </r>
       <r>   -7.8525    1.0000 </r>
       <r>   -7.0823    1.0000 </r>
       <r>   -7.0705    1.0000 </r>
       <r>   -3.3617    1.0000 </r>
       <r>   -3.1950    1.0000 </r>
       <r>   -2.0726    1.0000 </r>
       <r>   -2.0593    1.0000 </r>
       <r>   -0.2658    1.0000 </r>
       <r>    0.1064    1.0000 </r>
       <r>    0.2802    1.0000 </r>
       <r>    0.3274    1.0000 </r>
       <r>    1.0591    1.0000 </r>
       <r>    1.0918    1.0000 </r>
       <r>    1.4523    1.0000 </r>
       <r>    1.6200    1.0000 </r>
       <r>    4.4101    0.0000 </r>
       <r>    4.4183    0.0000 </r>
       <r>    5.2131    0.0000 </r>
       <r>    5.2186    0.0000 </r>
       <r>    5.9417    0.0000 </r>
       <r>    6.4323    0.0000 </r>
       <r>    6.4607    0.0000 </r>
       <r>    6.4898    0.0000 </r>
       <r>    8.5781    0.0000 </r>
       <r>    8.6207    0.0000 </r>
       <r>    8.8294    0.0000 </r>
       <r>    8.8562    0.0000 </r>
       <r>    9.5341    0.0000 </r>
       <r>    9.7082    0.0000 </r>
      </set>
      <set comment="kpoint 15">
       <r>  -20.6390    1.0000 </r>
       <r>  -20.6382    1.0000 </r>
       <r>  -20.5661    1.0000 </r>
       <r>  -20.5632    1.0000 </r>
       <r>  -17.6954    1.0000 </r>
       <r>  -17.6935    1.0000 </r>
       <r>  -17.6616    1.0000 </r>
       <r>  -17.6604    1.0000 </r>
       <r>  -17.5943    1.0000 </r>
       <r>  -17.5937    1.0000 </r>
       <r>   -7.9370    1.0000 </r>
       <r>   -7.9355    1.0000 </r>
       <r>   -7.0825    1.0000 </r>
       <r>   -7.0703    1.0000 </r>
       <r>   -3.3569    1.0000 </r>
       <r>   -3.1828    1.0000 </r>
       <r>   -1.9027    1.0000 </r>
       <r>   -1.8887    1.0000 </r>
       <r>   -0.3043    1.0000 </r>
       <r>    0.0942    1.0000 </r>
       <r>    0.2536    1.0000 </r>
       <r>    0.3124    1.0000 </r>
       <r>    1.1250    1.0000 </r>
       <r>    1.1555    1.0000 </r>
       <r>    1.5321    1.0000 </r>
       <r>    1.6942    1.0000 </r>
       <r>    4.4599    0.0000 </r>
       <r>    4.4678    0.0000 </r>
       <r>    5.3055    0.0000 </r>
       <r>    5.3105    0.0000 </r>
       <r>    6.1247    0.0000 </r>
       <r>    6.6435    0.0000 </r>
       <r>    6.6924    0.0000 </r>
       <r>    6.7172    0.0000 </r>
       <r>    8.3280    0.0000 </r>
       <r>    8.3606    0.0000 </r>
       <r>    8.6197    0.0000 </r>
       <r>    8.6402    0.0000 </r>
       <r>    9.3483    0.0000 </r>
       <r>    9.5083    0.0000 </r>
      </set>
      <set comment="kpoint 16">
       <r>  -20.6390    1.0000 </r>
       <r>  -20.6381    1.0000 </r>
       <r>  -20.5664    1.0000 </r>
       <r>  -20.5635    1.0000 </r>
       <r>  -17.6953    1.0000 </r>
       <r>  -17.6934    1.0000 </r>
       <r>  -17.6617    1.0000 </r>
       <r>  -17.6604    1.0000 </r>
       <r>  -17.5948    1.0000 </r>
       <r>  -17.5941    1.0000 </r>
       <r>   -8.0188    1.0000 </r>
       <r>   -8.0173    1.0000 </r>
       <r>   -7.0829    1.0000 </r>
       <r>   -7.0705    1.0000 </r>
       <r>   -3.3535    1.0000 </r>
       <r>   -3.1737    1.0000 </r>
       <r>   -1.7283    1.0000 </r>
       <r>   -1.7135    1.0000 </r>
       <r>   -0.3340    1.0000 </r>
       <r>    0.0868    1.0000 </r>
       <r>    0.2340    1.0000 </r>
       <r>    0.3033    1.0000 </r>
       <r>    1.1972    1.0000 </r>
       <r>    1.2262    1.0000 </r>
       <r>    1.6174    1.0000 </r>
       <r>    1.7745    1.0000 </r>
       <r>    4.5146    0.0000 </r>
       <r>    4.5223    0.0000 </r>
       <r>    5.3856    0.0000 </r>
       <r>    5.3906    0.0000 </r>
       <r>    6.2903    0.0000 </r>
       <r>    6.8324    0.0000 </r>
       <r>    6.9297    0.0000 </r>
       <r>    6.9418    0.0000 </r>
       <r>    8.0925    0.0000 </r>
       <r>    8.1096    0.0000 </r>
       <r>    8.4362    0.0000 </r>
       <r>    8.4515    0.0000 </r>
       <r>    9.1663    0.0000 </r>
       <r>    9.3109    0.0000 </r>
      </set>
      <set comment="kpoint 17">
       <r>  -20.6389    1.0000 </r>
       <r>  -20.6380    1.0000 </r>
       <r>  -20.5667    1.0000 </r>
       <r>  -20.5637    1.0000 </r>
       <r>  -17.6953    1.0000 </r>
       <r>  -17.6933    1.0000 </r>
       <r>  -17.6618    1.0000 </r>
       <r>  -17.6604    1.0000 </r>
       <r>  -17.5953    1.0000 </r>
       <r>  -17.5945    1.0000 </r>
       <r>   -8.0988    1.0000 </r>
       <r>   -8.0974    1.0000 </r>
       <r>   -7.0837    1.0000 </r>
       <r>   -7.0711    1.0000 </r>
       <r>   -3.3515    1.0000 </r>
       <r>   -3.1678    1.0000 </r>
       <r>   -1.5503    1.0000 </r>
       <r>   -1.5345    1.0000 </r>
       <r>   -0.3540    1.0000 </r>
       <r>    0.0849    1.0000 </r>
       <r>    0.2223    1.0000 </r>
       <r>    0.3010    1.0000 </r>
       <r>    1.2751    1.0000 </r>
       <r>    1.3030    1.0000 </r>
       <r>    1.7081    1.0000 </r>
       <r>    1.8607    1.0000 </r>
       <r>    4.5736    0.0000 </r>
       <r>    4.5815    0.0000 </r>
       <r>    5.4494    0.0000 </r>
       <r>    5.4546    0.0000 </r>
       <r>    6.4217    0.0000 </r>
       <r>    6.9728    0.0000 </r>
       <r>    7.1447    0.0000 </r>
       <r>    7.1638    0.0000 </r>
       <r>    7.8759    0.0000 </r>
       <r>    7.8869    0.0000 </r>
       <r>    8.2976    0.0000 </r>
       <r>    8.3148    0.0000 </r>
       <r>    8.9913    0.0000 </r>
       <r>    9.1173    0.0000 </r>
      </set>
      <set comment="kpoint 18">
       <r>  -20.6388    1.0000 </r>
       <r>  -20.6379    1.0000 </r>
       <r>  -20.5670    1.0000 </r>
       <r>  -20.5640    1.0000 </r>
       <r>  -17.6952    1.0000 </r>
       <r>  -17.6932    1.0000 </r>
       <r>  -17.6619    1.0000 </r>
       <r>  -17.6604    1.0000 </r>
       <r>  -17.5958    1.0000 </r>
       <r>  -17.5950    1.0000 </r>
       <r>   -8.1766    1.0000 </r>
       <r>   -8.1752    1.0000 </r>
       <r>   -7.0848    1.0000 </r>
       <r>   -7.0721    1.0000 </r>
       <r>   -3.3511    1.0000 </r>
       <r>   -3.1655    1.0000 </r>
       <r>   -1.3694    1.0000 </r>
       <r>   -1.3526    1.0000 </r>
       <r>   -0.3638    1.0000 </r>
       <r>    0.0888    1.0000 </r>
       <r>    0.2196    1.0000 </r>
       <r>    0.3063    1.0000 </r>
       <r>    1.3581    1.0000 </r>
       <r>    1.3853    1.0000 </r>
       <r>    1.8038    1.0000 </r>
       <r>    1.9523    1.0000 </r>
       <r>    4.6361    0.0000 </r>
       <r>    4.6445    0.0000 </r>
       <r>    5.4925    0.0000 </r>
       <r>    5.4981    0.0000 </r>
       <r>    6.4959    0.0000 </r>
       <r>    7.0267    0.0000 </r>
       <r>    7.2658    0.0000 </r>
       <r>    7.3458    0.0000 </r>
       <r>    7.7062    0.0000 </r>
       <r>    7.7652    0.0000 </r>
       <r>    8.2290    0.0000 </r>
       <r>    8.2632    0.0000 </r>
       <r>    8.8300    0.0000 </r>
       <r>    8.9280    0.0000 </r>
      </set>
      <set comment="kpoint 19">
       <r>  -20.6387    1.0000 </r>
       <r>  -20.6378    1.0000 </r>
       <r>  -20.5672    1.0000 </r>
       <r>  -20.5643    1.0000 </r>
       <r>  -17.6950    1.0000 </r>
       <r>  -17.6931    1.0000 </r>
       <r>  -17.6620    1.0000 </r>
       <r>  -17.6605    1.0000 </r>
       <r>  -17.5963    1.0000 </r>
       <r>  -17.5954    1.0000 </r>
       <r>   -8.2517    1.0000 </r>
       <r>   -8.2504    1.0000 </r>
       <r>   -7.0862    1.0000 </r>
       <r>   -7.0734    1.0000 </r>
       <r>   -3.3524    1.0000 </r>
       <r>   -3.1669    1.0000 </r>
       <r>   -1.1864    1.0000 </r>
       <r>   -1.1686    1.0000 </r>
       <r>   -0.3630    1.0000 </r>
       <r>    0.0989    1.0000 </r>
       <r>    0.2265    1.0000 </r>
       <r>    0.3200    1.0000 </r>
       <r>    1.4456    1.0000 </r>
       <r>    1.4722    1.0000 </r>
       <r>    1.9043    1.0000 </r>
       <r>    2.0491    1.0000 </r>
       <r>    4.7007    0.0000 </r>
       <r>    4.7100    0.0000 </r>
       <r>    5.5115    0.0000 </r>
       <r>    5.5176    0.0000 </r>
       <r>    6.4942    0.0000 </r>
       <r>    6.9742    0.0000 </r>
       <r>    7.2088    0.0000 </r>
       <r>    7.2903    0.0000 </r>
       <r>    7.7803    0.0000 </r>
       <r>    7.8123    0.0000 </r>
       <r>    8.2492    0.0000 </r>
       <r>    8.2979    0.0000 </r>
       <r>    8.7059    0.0000 </r>
       <r>    8.7472    0.0000 </r>
      </set>
      <set comment="kpoint 20">
       <r>  -20.6386    1.0000 </r>
       <r>  -20.6377    1.0000 </r>
       <r>  -20.5675    1.0000 </r>
       <r>  -20.5646    1.0000 </r>
       <r>  -17.6949    1.0000 </r>
       <r>  -17.6930    1.0000 </r>
       <r>  -17.6621    1.0000 </r>
       <r>  -17.6605    1.0000 </r>
       <r>  -17.5968    1.0000 </r>
       <r>  -17.5958    1.0000 </r>
       <r>   -8.3239    1.0000 </r>
       <r>   -8.3226    1.0000 </r>
       <r>   -7.0880    1.0000 </r>
       <r>   -7.0751    1.0000 </r>
       <r>   -3.3554    1.0000 </r>
       <r>   -3.1720    1.0000 </r>
       <r>   -1.0023    1.0000 </r>
       <r>   -0.9834    1.0000 </r>
       <r>   -0.3517    1.0000 </r>
       <r>    0.1151    1.0000 </r>
       <r>    0.2438    1.0000 </r>
       <r>    0.3426    1.0000 </r>
       <r>    1.5371    1.0000 </r>
       <r>    1.5632    1.0000 </r>
       <r>    2.0092    1.0000 </r>
       <r>    2.1507    1.0000 </r>
       <r>    4.7648    0.0000 </r>
       <r>    4.7755    0.0000 </r>
       <r>    5.5048    0.0000 </r>
       <r>    5.5114    0.0000 </r>
       <r>    6.4176    0.0000 </r>
       <r>    6.8392    0.0000 </r>
       <r>    7.0462    0.0000 </r>
       <r>    7.0995    0.0000 </r>
       <r>    7.9418    0.0000 </r>
       <r>    7.9710    0.0000 </r>
       <r>    8.3247    0.0000 </r>
       <r>    8.3373    0.0000 </r>
       <r>    8.6004    0.0000 </r>
       <r>    8.6983    0.0000 </r>
      </set>
      <set comment="kpoint 21">
       <r>  -20.6385    1.0000 </r>
       <r>  -20.6377    1.0000 </r>
       <r>  -20.5678    1.0000 </r>
       <r>  -20.5649    1.0000 </r>
       <r>  -17.6948    1.0000 </r>
       <r>  -17.6929    1.0000 </r>
       <r>  -17.6623    1.0000 </r>
       <r>  -17.6606    1.0000 </r>
       <r>  -17.5973    1.0000 </r>
       <r>  -17.5961    1.0000 </r>
       <r>   -8.3928    1.0000 </r>
       <r>   -8.3915    1.0000 </r>
       <r>   -7.0901    1.0000 </r>
       <r>   -7.0772    1.0000 </r>
       <r>   -3.3599    1.0000 </r>
       <r>   -3.1805    1.0000 </r>
       <r>   -0.8182    1.0000 </r>
       <r>   -0.7984    1.0000 </r>
       <r>   -0.3300    1.0000 </r>
       <r>    0.1372    1.0000 </r>
       <r>    0.2722    1.0000 </r>
       <r>    0.3749    1.0000 </r>
       <r>    1.6320    1.0000 </r>
       <r>    1.6577    1.0000 </r>
       <r>    2.1182    1.0000 </r>
       <r>    2.2565    1.0000 </r>
       <r>    4.8232    0.0000 </r>
       <r>    4.8364    0.0000 </r>
       <r>    5.4752    0.0000 </r>
       <r>    5.4824    0.0000 </r>
       <r>    6.2859    0.0000 </r>
       <r>    6.6583    0.0000 </r>
       <r>    6.8588    0.0000 </r>
       <r>    6.8950    0.0000 </r>
       <r>    8.0393    0.0000 </r>
       <r>    8.0498    0.0000 </r>
       <r>    8.2803    0.0000 </r>
       <r>    8.4153    0.0000 </r>
       <r>    8.6081    0.0000 </r>
       <r>    8.8089    0.0000 </r>
      </set>
      <set comment="kpoint 22">
       <r>  -20.6384    1.0000 </r>
       <r>  -20.6376    1.0000 </r>
       <r>  -20.5680    1.0000 </r>
       <r>  -20.5652    1.0000 </r>
       <r>  -17.6946    1.0000 </r>
       <r>  -17.6929    1.0000 </r>
       <r>  -17.6624    1.0000 </r>
       <r>  -17.6607    1.0000 </r>
       <r>  -17.5977    1.0000 </r>
       <r>  -17.5965    1.0000 </r>
       <r>   -8.4583    1.0000 </r>
       <r>   -8.4570    1.0000 </r>
       <r>   -7.0924    1.0000 </r>
       <r>   -7.0796    1.0000 </r>
       <r>   -3.3657    1.0000 </r>
       <r>   -3.1922    1.0000 </r>
       <r>   -0.6353    1.0000 </r>
       <r>   -0.6151    1.0000 </r>
       <r>   -0.2985    1.0000 </r>
       <r>    0.1652    1.0000 </r>
       <r>    0.3126    1.0000 </r>
       <r>    0.4176    1.0000 </r>
       <r>    1.7295    1.0000 </r>
       <r>    1.7547    1.0000 </r>
       <r>    2.2309    1.0000 </r>
       <r>    2.3663    1.0000 </r>
       <r>    4.8663    0.0000 </r>
       <r>    4.8832    0.0000 </r>
       <r>    5.4331    0.0000 </r>
       <r>    5.4410    0.0000 </r>
       <r>    6.1219    0.0000 </r>
       <r>    6.4557    0.0000 </r>
       <r>    6.6667    0.0000 </r>
       <r>    6.6922    0.0000 </r>
       <r>    7.9360    0.0000 </r>
       <r>    8.0630    0.0000 </r>
       <r>    8.1205    0.0000 </r>
       <r>    8.5952    0.0000 </r>
       <r>    8.6286    0.0000 </r>
       <r>    8.7096    0.0000 </r>
      </set>
      <set comment="kpoint 23">
       <r>  -20.6383    1.0000 </r>
       <r>  -20.6375    1.0000 </r>
       <r>  -20.5683    1.0000 </r>
       <r>  -20.5655    1.0000 </r>
       <r>  -17.6945    1.0000 </r>
       <r>  -17.6928    1.0000 </r>
       <r>  -17.6626    1.0000 </r>
       <r>  -17.6608    1.0000 </r>
       <r>  -17.5981    1.0000 </r>
       <r>  -17.5969    1.0000 </r>
       <r>   -8.5199    1.0000 </r>
       <r>   -8.5187    1.0000 </r>
       <r>   -7.0949    1.0000 </r>
       <r>   -7.0823    1.0000 </r>
       <r>   -3.3727    1.0000 </r>
       <r>   -3.2067    1.0000 </r>
       <r>   -0.4553    1.0000 </r>
       <r>   -0.4358    1.0000 </r>
       <r>   -0.2577    1.0000 </r>
       <r>    0.1988    1.0000 </r>
       <r>    0.3663    1.0000 </r>
       <r>    0.4717    1.0000 </r>
       <r>    1.8289    1.0000 </r>
       <r>    1.8536    1.0000 </r>
       <r>    2.3468    1.0000 </r>
       <r>    2.4792    1.0000 </r>
       <r>    4.8762    0.0000 </r>
       <r>    4.8977    0.0000 </r>
       <r>    5.3988    0.0000 </r>
       <r>    5.4080    0.0000 </r>
       <r>    5.9424    0.0000 </r>
       <r>    6.2444    0.0000 </r>
       <r>    6.4749    0.0000 </r>
       <r>    6.4931    0.0000 </r>
       <r>    7.7827    0.0000 </r>
       <r>    7.9422    0.0000 </r>
       <r>    7.9715    0.0000 </r>
       <r>    8.3801    0.0000 </r>
       <r>    8.8624    0.0000 </r>
       <r>    8.8693    0.0000 </r>
      </set>
      <set comment="kpoint 24">
       <r>  -20.6382    1.0000 </r>
       <r>  -20.6374    1.0000 </r>
       <r>  -20.5685    1.0000 </r>
       <r>  -20.5658    1.0000 </r>
       <r>  -17.6943    1.0000 </r>
       <r>  -17.6927    1.0000 </r>
       <r>  -17.6627    1.0000 </r>
       <r>  -17.6609    1.0000 </r>
       <r>  -17.5985    1.0000 </r>
       <r>  -17.5972    1.0000 </r>
       <r>   -8.5777    1.0000 </r>
       <r>   -8.5764    1.0000 </r>
       <r>   -7.0976    1.0000 </r>
       <r>   -7.0852    1.0000 </r>
       <r>   -3.3804    1.0000 </r>
       <r>   -3.2233    1.0000 </r>
       <r>   -0.2811    1.0000 </r>
       <r>   -0.2640    1.0000 </r>
       <r>   -0.2082    1.0000 </r>
       <r>    0.2380    1.0000 </r>
       <r>    0.4350    1.0000 </r>
       <r>    0.5385    1.0000 </r>
       <r>    1.9293    1.0000 </r>
       <r>    1.9532    1.0000 </r>
       <r>    2.4652    1.0000 </r>
       <r>    2.5948    1.0000 </r>
       <r>    4.8349    0.0000 </r>
       <r>    4.8600    0.0000 </r>
       <r>    5.3929    0.0000 </r>
       <r>    5.4072    0.0000 </r>
       <r>    5.7602    0.0000 </r>
       <r>    6.0315    0.0000 </r>
       <r>    6.2853    0.0000 </r>
       <r>    6.2979    0.0000 </r>
       <r>    7.6174    0.0000 </r>
       <r>    7.7621    0.0000 </r>
       <r>    7.8257    0.0000 </r>
       <r>    8.1662    0.0000 </r>
       <r>    9.0598    0.0000 </r>
       <r>    9.1138    0.0000 </r>
      </set>
      <set comment="kpoint 25">
       <r>  -20.6381    1.0000 </r>
       <r>  -20.6373    1.0000 </r>
       <r>  -20.5687    1.0000 </r>
       <r>  -20.5661    1.0000 </r>
       <r>  -17.6942    1.0000 </r>
       <r>  -17.6926    1.0000 </r>
       <r>  -17.6629    1.0000 </r>
       <r>  -17.6611    1.0000 </r>
       <r>  -17.5988    1.0000 </r>
       <r>  -17.5975    1.0000 </r>
       <r>   -8.6313    1.0000 </r>
       <r>   -8.6301    1.0000 </r>
       <r>   -7.1004    1.0000 </r>
       <r>   -7.0882    1.0000 </r>
       <r>   -3.3888    1.0000 </r>
       <r>   -3.2417    1.0000 </r>
       <r>   -0.1550    1.0000 </r>
       <r>   -0.1116    1.0000 </r>
       <r>   -0.1039    1.0000 </r>
       <r>    0.2826    1.0000 </r>
       <r>    0.5211    1.0000 </r>
       <r>    0.6197    1.0000 </r>
       <r>    2.0293    1.0000 </r>
       <r>    2.0525    1.0000 </r>
       <r>    2.5855    1.0000 </r>
       <r>    2.7120    1.0000 </r>
       <r>    4.7429    0.0000 </r>
       <r>    4.7702    0.0000 </r>
       <r>    5.4024    0.0000 </r>
       <r>    5.4428    0.0000 </r>
       <r>    5.5963    0.0000 </r>
       <r>    5.8214    0.0000 </r>
       <r>    6.1005    0.0000 </r>
       <r>    6.1085    0.0000 </r>
       <r>    7.4497    0.0000 </r>
       <r>    7.5837    0.0000 </r>
       <r>    7.6602    0.0000 </r>
       <r>    7.9577    0.0000 </r>
       <r>    9.2762    0.0000 </r>
       <r>    9.3527    0.0000 </r>
      </set>
      <set comment="kpoint 26">
       <r>  -20.6381    1.0000 </r>
       <r>  -20.6373    1.0000 </r>
       <r>  -20.5689    1.0000 </r>
       <r>  -20.5664    1.0000 </r>
       <r>  -17.6940    1.0000 </r>
       <r>  -17.6926    1.0000 </r>
       <r>  -17.6631    1.0000 </r>
       <r>  -17.6613    1.0000 </r>
       <r>  -17.5991    1.0000 </r>
       <r>  -17.5978    1.0000 </r>
       <r>   -8.6807    1.0000 </r>
       <r>   -8.6795    1.0000 </r>
       <r>   -7.1033    1.0000 </r>
       <r>   -7.0914    1.0000 </r>
       <r>   -3.3972    1.0000 </r>
       <r>   -3.2611    1.0000 </r>
       <r>   -0.0920    1.0000 </r>
       <r>    0.0377    1.0000 </r>
       <r>    0.0437    1.0000 </r>
       <r>    0.3329    1.0000 </r>
       <r>    0.6276    1.0000 </r>
       <r>    0.7174    1.0000 </r>
       <r>    2.1277    1.0000 </r>
       <r>    2.1498    1.0000 </r>
       <r>    2.7067    1.0000 </r>
       <r>    2.8299    1.0000 </r>
       <r>    4.6178    0.0000 </r>
       <r>    4.6469    0.0000 </r>
       <r>    5.3284    0.0000 </r>
       <r>    5.4948    0.0000 </r>
       <r>    5.5322    0.0000 </r>
       <r>    5.6172    0.0000 </r>
       <r>    5.9285    0.0000 </r>
       <r>    5.9345    0.0000 </r>
       <r>    7.2839    0.0000 </r>
       <r>    7.4088    0.0000 </r>
       <r>    7.4900    0.0000 </r>
       <r>    7.7558    0.0000 </r>
       <r>    9.4982    0.0000 </r>
       <r>    9.5833    0.0000 </r>
      </set>
      <set comment="kpoint 27">
       <r>  -20.6380    1.0000 </r>
       <r>  -20.6372    1.0000 </r>
       <r>  -20.5691    1.0000 </r>
       <r>  -20.5666    1.0000 </r>
       <r>  -17.6939    1.0000 </r>
       <r>  -17.6925    1.0000 </r>
       <r>  -17.6632    1.0000 </r>
       <r>  -17.6615    1.0000 </r>
       <r>  -17.5993    1.0000 </r>
       <r>  -17.5980    1.0000 </r>
       <r>   -8.7257    1.0000 </r>
       <r>   -8.7245    1.0000 </r>
       <r>   -7.1061    1.0000 </r>
       <r>   -7.0945    1.0000 </r>
       <r>   -3.4055    1.0000 </r>
       <r>   -3.2811    1.0000 </r>
       <r>   -0.0255    1.0000 </r>
       <r>    0.1584    1.0000 </r>
       <r>    0.1848    1.0000 </r>
       <r>    0.3893    1.0000 </r>
       <r>    0.7555    1.0000 </r>
       <r>    0.8327    1.0000 </r>
       <r>    2.2224    1.0000 </r>
       <r>    2.2432    1.0000 </r>
       <r>    2.8278    1.0000 </r>
       <r>    2.9472    1.0000 </r>
       <r>    4.4762    0.0000 </r>
       <r>    4.5071    0.0000 </r>
       <r>    5.1732    0.0000 </r>
       <r>    5.4210    0.0000 </r>
       <r>    5.5164    0.0000 </r>
       <r>    5.5203    0.0000 </r>
       <r>    5.8009    0.0000 </r>
       <r>    5.8175    0.0000 </r>
       <r>    7.1230    0.0000 </r>
       <r>    7.2387    0.0000 </r>
       <r>    7.3226    0.0000 </r>
       <r>    7.5616    0.0000 </r>
       <r>    9.7143    0.0000 </r>
       <r>    9.7991    0.0000 </r>
      </set>
      <set comment="kpoint 28">
       <r>  -20.6379    1.0000 </r>
       <r>  -20.6372    1.0000 </r>
       <r>  -20.5692    1.0000 </r>
       <r>  -20.5669    1.0000 </r>
       <r>  -17.6937    1.0000 </r>
       <r>  -17.6925    1.0000 </r>
       <r>  -17.6633    1.0000 </r>
       <r>  -17.6617    1.0000 </r>
       <r>  -17.5995    1.0000 </r>
       <r>  -17.5983    1.0000 </r>
       <r>   -8.7663    1.0000 </r>
       <r>   -8.7650    1.0000 </r>
       <r>   -7.1088    1.0000 </r>
       <r>   -7.0976    1.0000 </r>
       <r>   -3.4133    1.0000 </r>
       <r>   -3.3012    1.0000 </r>
       <r>    0.0439    1.0000 </r>
       <r>    0.2554    1.0000 </r>
       <r>    0.3105    1.0000 </r>
       <r>    0.4515    1.0000 </r>
       <r>    0.9029    1.0000 </r>
       <r>    0.9653    1.0000 </r>
       <r>    2.3110    1.0000 </r>
       <r>    2.3302    1.0000 </r>
       <r>    2.9472    1.0000 </r>
       <r>    3.0623    1.0000 </r>
       <r>    4.3294    0.0000 </r>
       <r>    4.3624    0.0000 </r>
       <r>    5.0135    0.0000 </r>
       <r>    5.2356    0.0000 </r>
       <r>    5.4196    0.0000 </r>
       <r>    5.4301    0.0000 </r>
       <r>    5.7926    0.0000 </r>
       <r>    5.8149    0.0000 </r>
       <r>    6.9693    0.0000 </r>
       <r>    7.0746    0.0000 </r>
       <r>    7.1631    0.0000 </r>
       <r>    7.3765    0.0000 </r>
       <r>    9.8785    0.0000 </r>
       <r>    9.9363    0.0000 </r>
      </set>
      <set comment="kpoint 29">
       <r>  -20.6379    1.0000 </r>
       <r>  -20.6371    1.0000 </r>
       <r>  -20.5693    1.0000 </r>
       <r>  -20.5671    1.0000 </r>
       <r>  -17.6936    1.0000 </r>
       <r>  -17.6924    1.0000 </r>
       <r>  -17.6635    1.0000 </r>
       <r>  -17.6619    1.0000 </r>
       <r>  -17.5997    1.0000 </r>
       <r>  -17.5985    1.0000 </r>
       <r>   -8.8023    1.0000 </r>
       <r>   -8.8010    1.0000 </r>
       <r>   -7.1113    1.0000 </r>
       <r>   -7.1006    1.0000 </r>
       <r>   -3.4202    1.0000 </r>
       <r>   -3.3208    1.0000 </r>
       <r>    0.1145    1.0000 </r>
       <r>    0.3316    1.0000 </r>
       <r>    0.4208    1.0000 </r>
       <r>    0.5178    1.0000 </r>
       <r>    1.0646    1.0000 </r>
       <r>    1.1124    1.0000 </r>
       <r>    2.3901    1.0000 </r>
       <r>    2.4074    1.0000 </r>
       <r>    3.0632    1.0000 </r>
       <r>    3.1728    1.0000 </r>
       <r>    4.1860    0.0000 </r>
       <r>    4.2207    0.0000 </r>
       <r>    4.8642    0.0000 </r>
       <r>    5.0628    0.0000 </r>
       <r>    5.2655    0.0000 </r>
       <r>    5.2765    0.0000 </r>
       <r>    5.8589    0.0000 </r>
       <r>    5.8782    0.0000 </r>
       <r>    6.8253    0.0000 </r>
       <r>    6.9183    0.0000 </r>
       <r>    7.0151    0.0000 </r>
       <r>    7.2023    0.0000 </r>
       <r>    9.8324    0.0000 </r>
       <r>    9.8427    0.0000 </r>
      </set>
      <set comment="kpoint 30">
       <r>  -20.6378    1.0000 </r>
       <r>  -20.6370    1.0000 </r>
       <r>  -20.5694    1.0000 </r>
       <r>  -20.5673    1.0000 </r>
       <r>  -17.6934    1.0000 </r>
       <r>  -17.6924    1.0000 </r>
       <r>  -17.6636    1.0000 </r>
       <r>  -17.6621    1.0000 </r>
       <r>  -17.5998    1.0000 </r>
       <r>  -17.5987    1.0000 </r>
       <r>   -8.8336    1.0000 </r>
       <r>   -8.8323    1.0000 </r>
       <r>   -7.1137    1.0000 </r>
       <r>   -7.1034    1.0000 </r>
       <r>   -3.4260    1.0000 </r>
       <r>   -3.3396    1.0000 </r>
       <r>    0.1847    1.0000 </r>
       <r>    0.3912    1.0000 </r>
       <r>    0.5170    1.0000 </r>
       <r>    0.5846    1.0000 </r>
       <r>    1.2349    1.0000 </r>
       <r>    1.2698    1.0000 </r>
       <r>    2.4553    1.0000 </r>
       <r>    2.4703    1.0000 </r>
       <r>    3.1732    1.0000 </r>
       <r>    3.2759    1.0000 </r>
       <r>    4.0533    0.0000 </r>
       <r>    4.0891    0.0000 </r>
       <r>    4.7303    0.0000 </r>
       <r>    4.9048    0.0000 </r>
       <r>    5.1028    0.0000 </r>
       <r>    5.1135    0.0000 </r>
       <r>    5.9416    0.0000 </r>
       <r>    5.9577    0.0000 </r>
       <r>    6.6937    0.0000 </r>
       <r>    6.7725    0.0000 </r>
       <r>    6.8816    0.0000 </r>
       <r>    7.0410    0.0000 </r>
       <r>    9.6775    0.0000 </r>
       <r>    9.6791    0.0000 </r>
      </set>
      <set comment="kpoint 31">
       <r>  -20.6378    1.0000 </r>
       <r>  -20.6370    1.0000 </r>
       <r>  -20.5695    1.0000 </r>
       <r>  -20.5675    1.0000 </r>
       <r>  -17.6933    1.0000 </r>
       <r>  -17.6924    1.0000 </r>
       <r>  -17.6636    1.0000 </r>
       <r>  -17.6623    1.0000 </r>
       <r>  -17.5999    1.0000 </r>
       <r>  -17.5989    1.0000 </r>
       <r>   -8.8602    1.0000 </r>
       <r>   -8.8590    1.0000 </r>
       <r>   -7.1157    1.0000 </r>
       <r>   -7.1059    1.0000 </r>
       <r>   -3.4303    1.0000 </r>
       <r>   -3.3571    1.0000 </r>
       <r>    0.2524    1.0000 </r>
       <r>    0.4377    1.0000 </r>
       <r>    0.6001    1.0000 </r>
       <r>    0.6480    1.0000 </r>
       <r>    1.4086    1.0000 </r>
       <r>    1.4327    1.0000 </r>
       <r>    2.5009    1.0000 </r>
       <r>    2.5136    1.0000 </r>
       <r>    3.2740    1.0000 </r>
       <r>    3.3675    1.0000 </r>
       <r>    3.9391    0.0000 </r>
       <r>    3.9745    0.0000 </r>
       <r>    4.6150    0.0000 </r>
       <r>    4.7640    0.0000 </r>
       <r>    4.9463    0.0000 </r>
       <r>    4.9572    0.0000 </r>
       <r>    6.0232    0.0000 </r>
       <r>    6.0368    0.0000 </r>
       <r>    6.5779    0.0000 </r>
       <r>    6.6410    0.0000 </r>
       <r>    6.7654    0.0000 </r>
       <r>    6.8951    0.0000 </r>
       <r>    9.5200    0.0000 </r>
       <r>    9.5214    0.0000 </r>
      </set>
      <set comment="kpoint 32">
       <r>  -20.6377    1.0000 </r>
       <r>  -20.6370    1.0000 </r>
       <r>  -20.5696    1.0000 </r>
       <r>  -20.5677    1.0000 </r>
       <r>  -17.6932    1.0000 </r>
       <r>  -17.6924    1.0000 </r>
       <r>  -17.6637    1.0000 </r>
       <r>  -17.6624    1.0000 </r>
       <r>  -17.6000    1.0000 </r>
       <r>  -17.5990    1.0000 </r>
       <r>   -8.8821    1.0000 </r>
       <r>   -8.8808    1.0000 </r>
       <r>   -7.1174    1.0000 </r>
       <r>   -7.1081    1.0000 </r>
       <r>   -3.4330    1.0000 </r>
       <r>   -3.3731    1.0000 </r>
       <r>    0.3157    1.0000 </r>
       <r>    0.4726    1.0000 </r>
       <r>    0.6706    1.0000 </r>
       <r>    0.7047    1.0000 </r>
       <r>    1.5811    1.0000 </r>
       <r>    1.5963    1.0000 </r>
       <r>    2.5208    1.0000 </r>
       <r>    2.5310    1.0000 </r>
       <r>    3.3616    1.0000 </r>
       <r>    3.4423    1.0000 </r>
       <r>    3.8518    0.0000 </r>
       <r>    3.8839    0.0000 </r>
       <r>    4.5212    0.0000 </r>
       <r>    4.6428    0.0000 </r>
       <r>    4.8034    0.0000 </r>
       <r>    4.8150    0.0000 </r>
       <r>    6.0945    0.0000 </r>
       <r>    6.1059    0.0000 </r>
       <r>    6.4826    0.0000 </r>
       <r>    6.5295    0.0000 </r>
       <r>    6.6689    0.0000 </r>
       <r>    6.7675    0.0000 </r>
       <r>    9.3794    0.0000 </r>
       <r>    9.3815    0.0000 </r>
      </set>
      <set comment="kpoint 33">
       <r>  -20.6377    1.0000 </r>
       <r>  -20.6369    1.0000 </r>
       <r>  -20.5696    1.0000 </r>
       <r>  -20.5679    1.0000 </r>
       <r>  -17.6931    1.0000 </r>
       <r>  -17.6924    1.0000 </r>
       <r>  -17.6638    1.0000 </r>
       <r>  -17.6625    1.0000 </r>
       <r>  -17.6000    1.0000 </r>
       <r>  -17.5992    1.0000 </r>
       <r>   -8.8992    1.0000 </r>
       <r>   -8.8978    1.0000 </r>
       <r>   -7.1186    1.0000 </r>
       <r>   -7.1100    1.0000 </r>
       <r>   -3.4338    1.0000 </r>
       <r>   -3.3873    1.0000 </r>
       <r>    0.3726    1.0000 </r>
       <r>    0.4959    1.0000 </r>
       <r>    0.7278    1.0000 </r>
       <r>    0.7518    1.0000 </r>
       <r>    1.7474    1.0000 </r>
       <r>    1.7555    1.0000 </r>
       <r>    2.5102    1.0000 </r>
       <r>    2.5183    1.0000 </r>
       <r>    3.4309    1.0000 </r>
       <r>    3.4943    1.0000 </r>
       <r>    3.7984    0.0001 </r>
       <r>    3.8230    0.0000 </r>
       <r>    4.4510    0.0000 </r>
       <r>    4.5435    0.0000 </r>
       <r>    4.6805    0.0000 </r>
       <r>    4.6926    0.0000 </r>
       <r>    6.1461    0.0000 </r>
       <r>    6.1549    0.0000 </r>
       <r>    6.4151    0.0000 </r>
       <r>    6.4459    0.0000 </r>
       <r>    6.5948    0.0000 </r>
       <r>    6.6616    0.0000 </r>
       <r>    9.2627    0.0000 </r>
       <r>    9.2653    0.0000 </r>
      </set>
      <set comment="kpoint 34">
       <r>  -20.6376    1.0000 </r>
       <r>  -20.6369    1.0000 </r>
       <r>  -20.5696    1.0000 </r>
       <r>  -20.5680    1.0000 </r>
       <r>  -17.6931    1.0000 </r>
       <r>  -17.6923    1.0000 </r>
       <r>  -17.6638    1.0000 </r>
       <r>  -17.6626    1.0000 </r>
       <r>  -17.6000    1.0000 </r>
       <r>  -17.5993    1.0000 </r>
       <r>   -8.9114    1.0000 </r>
       <r>   -8.9100    1.0000 </r>
       <r>   -7.1195    1.0000 </r>
       <r>   -7.1114    1.0000 </r>
       <r>   -3.4325    1.0000 </r>
       <r>   -3.3995    1.0000 </r>
       <r>    0.4211    1.0000 </r>
       <r>    0.5069    1.0000 </r>
       <r>    0.7709    1.0000 </r>
       <r>    0.7869    1.0000 </r>
       <r>    1.9004    1.0000 </r>
       <r>    1.9030    1.0000 </r>
       <r>    2.4700    1.0000 </r>
       <r>    2.4764    1.0000 </r>
       <r>    3.4781    1.0000 </r>
       <r>    3.5216    1.0000 </r>
       <r>    3.7777    0.0010 </r>
       <r>    3.7924    0.0002 </r>
       <r>    4.4058    0.0000 </r>
       <r>    4.4680    0.0000 </r>
       <r>    4.5843    0.0000 </r>
       <r>    4.5961    0.0000 </r>
       <r>    6.1695    0.0000 </r>
       <r>    6.1745    0.0000 </r>
       <r>    6.3823    0.0000 </r>
       <r>    6.3987    0.0000 </r>
       <r>    6.5450    0.0000 </r>
[...]
       <r>     3.0112     0.0000     0.0000 </r>
       <r>     3.1286     0.0000     0.0000 </r>
       <r>     3.2461     0.0000     0.0000 </r>
       <r>     3.3635     0.0000     0.0000 </r>
       <r>     3.4810     0.0000     0.0000 </r>
       <r>     3.5985     0.0000     0.0000 </r>
       <r>     3.7159     0.0000     0.0000 </r>
       <r>     3.8334     0.0000     0.0000 </r>
       <r>     3.9508     0.0000     0.0000 </r>
       <r>     4.0683     0.0000     0.0000 </r>
       <r>     4.1857     0.0000     0.0000 </r>
       <r>     4.3032     0.0000     0.0000 </r>
       <r>     4.4206     0.0000     0.0000 </r>
       <r>     4.5381     0.0000     0.0000 </r>
       <r>     4.6555     0.0000     0.0000 </r>
       <r>     4.7730     0.0000     0.0000 </r>
       <r>     4.8904     0.0000     0.0000 </r>
       <r>     5.0079     0.0000     0.0000 </r>
       <r>     5.1253     0.0000     0.0000 </r>
       <r>     5.2428     0.0000     0.0000 </r>
       <r>     5.3602     0.0000     0.0000 </r>
       <r>     5.4777     0.0000     0.0000 </r>
       <r>     5.5952     0.0000     0.0000 </r>
       <r>     5.7126     0.0000     0.0000 </r>
       <r>     5.8301     0.0000     0.0000 </r>
       <r>     5.9475     0.0000     0.0000 </r>
       <r>     6.0650     0.0000     0.0000 </r>
       <r>     6.1824     0.0000     0.0000 </r>
       <r>     6.2999     0.0000     0.0000 </r>
       <r>     6.4173     0.0000     0.0000 </r>
       <r>     6.5348     0.0000     0.0000 </r>
       <r>     6.6522     0.0000     0.0000 </r>
       <r>     6.7697     0.0000     0.0000 </r>
       <r>     6.8871     0.0000     0.0000 </r>
       <r>     7.0046     0.0000     0.0000 </r>
       <r>     7.1220     0.0000     0.0000 </r>
       <r>     7.2395     0.0000     0.0000 </r>
       <r>     7.3569     0.0000     0.0000 </r>
       <r>     7.4744     0.0000     0.0000 </r>
       <r>     7.5919     0.0000     0.0000 </r>
       <r>     7.7093     0.0000     0.0000 </r>
       <r>     7.8268     0.0000     0.0000 </r>
       <r>     7.9442     0.0000     0.0000 </r>
       <r>     8.0617     0.0000     0.0000 </r>
       <r>     8.1791     0.0000     0.0000 </r>
       <r>     8.2966     0.0000     0.0000 </r>
       <r>     8.4140     0.0000     0.0000 </r>
       <r>     8.5315     0.0000     0.0000 </r>
       <r>     8.6489     0.0000     0.0000 </r>
       <r>     8.7664     0.0000     0.0000 </r>
       <r>     8.8838     0.0000     0.0000 </r>
       <r>     9.0013     0.0000     0.0000 </r>
       <r>     9.1187     0.0000     0.0000 </r>
       <r>     9.2362     0.0000     0.0000 </r>
       <r>     9.3537     0.0000     0.0000 </r>
       <r>     9.4711     0.0000     0.0000 </r>
       <r>     9.5886     0.0000     0.0000 </r>
       <r>     9.7060     0.0000     0.0000 </r>
       <r>     9.8235     0.0000     0.0000 </r>
       <r>     9.9409     0.0000     0.0000 </r>
       <r>    10.0584     0.0000     0.0000 </r>
       <r>    10.1758     0.0000     0.0000 </r>
       <r>    10.2933     0.0000     0.0000 </r>
       <r>    10.4107     0.0000     0.0000 </r>
       <r>    10.5282     0.0000     0.0000 </r>
       <r>    10.6456     0.0000     0.0000 </r>
       <r>    10.7631     0.0000     0.0000 </r>
       <r>    10.8805     0.0000     0.0000 </r>
       <r>    10.9980     0.0000     0.0000 </r>
       <r>    11.1154     0.0000     0.0000 </r>
       <r>    11.2329     0.0000     0.0000 </r>
       <r>    11.3504     0.0000     0.0000 </r>
       <r>    11.4678     0.0000     0.0000 </r>
       <r>    11.5853     0.0000     0.0000 </r>
       <r>    11.7027     0.0000     0.0000 </r>
       <r>    11.8202     0.0000     0.0000 </r>
       <r>    11.9376     0.0000     0.0000 </r>
       <r>    12.0551     0.0000     0.0000 </r>
       <r>    12.1725     0.0000     0.0000 </r>
       <r>    12.2900     0.0000     0.0000 </r>
       <r>    12.4074     0.0000     0.0000 </r>
       <r>    12.5249     0.0000     0.0000 </r>
       <r>    12.6423     0.0000     0.0000 </r>
       <r>    12.7598     0.0000     0.0000 </r>
       <r>    12.8772     0.0000     0.0000 </r>
       <r>    12.9947     0.0000     0.0000 </r>
      </set>
      <set comment="spin 4">
       <r>   -22.2412     0.0000     0.0000 </r>
       <r>   -22.1238     0.0000     0.0000 </r>
       <r>   -22.0063     0.0000     0.0000 </r>
       <r>   -21.8889     0.0000     0.0000 </r>
       <r>   -21.7714     0.0000     0.0000 </r>
       <r>   -21.6540     0.0000     0.0000 </r>
       <r>   -21.5365     0.0000     0.0000 </r>
       <r>   -21.4191     0.0000     0.0000 </r>
       <r>   -21.3016     0.0000     0.0000 </r>
       <r>   -21.1841     0.0000     0.0000 </r>
       <r>   -21.0667     0.0000     0.0000 </r>
       <r>   -20.9492     0.0000     0.0000 </r>
       <r>   -20.8318     0.0000     0.0000 </r>
       <r>   -20.7143     0.0000     0.0000 </r>
       <r>   -20.5969     0.0000     0.0000 </r>
       <r>   -20.4794     0.0000     0.0000 </r>
       <r>   -20.3620     0.0000     0.0000 </r>
       <r>   -20.2445     0.0000     0.0000 </r>
       <r>   -20.1271     0.0000     0.0000 </r>
       <r>   -20.0096     0.0000     0.0000 </r>
       <r>   -19.8922     0.0000     0.0000 </r>
       <r>   -19.7747     0.0000     0.0000 </r>
       <r>   -19.6573     0.0000     0.0000 </r>
       <r>   -19.5398     0.0000     0.0000 </r>
       <r>   -19.4224     0.0000     0.0000 </r>
       <r>   -19.3049     0.0000     0.0000 </r>
       <r>   -19.1874     0.0000     0.0000 </r>
       <r>   -19.0700     0.0000     0.0000 </r>
       <r>   -18.9525     0.0000     0.0000 </r>
       <r>   -18.8351     0.0000     0.0000 </r>
       <r>   -18.7176     0.0000     0.0000 </r>
       <r>   -18.6002     0.0000     0.0000 </r>
       <r>   -18.4827     0.0000     0.0000 </r>
       <r>   -18.3653     0.0000     0.0000 </r>
       <r>   -18.2478     0.0000     0.0000 </r>
       <r>   -18.1304     0.0000     0.0000 </r>
       <r>   -18.0129     0.0000     0.0000 </r>
       <r>   -17.8955     0.0000     0.0000 </r>
       <r>   -17.7780     0.0000     0.0000 </r>
       <r>   -17.6606     0.0000     0.0000 </r>
       <r>   -17.5431     0.0000     0.0000 </r>
       <r>   -17.4257     0.0000     0.0000 </r>
       <r>   -17.3082     0.0000     0.0000 </r>
       <r>   -17.1907     0.0000     0.0000 </r>
       <r>   -17.0733     0.0000     0.0000 </r>
       <r>   -16.9558     0.0000     0.0000 </r>
       <r>   -16.8384     0.0000     0.0000 </r>
       <r>   -16.7209     0.0000     0.0000 </r>
       <r>   -16.6035     0.0000     0.0000 </r>
       <r>   -16.4860     0.0000     0.0000 </r>
       <r>   -16.3686     0.0000     0.0000 </r>
       <r>   -16.2511     0.0000     0.0000 </r>
       <r>   -16.1337     0.0000     0.0000 </r>
       <r>   -16.0162     0.0000     0.0000 </r>
       <r>   -15.8988     0.0000     0.0000 </r>
       <r>   -15.7813     0.0000     0.0000 </r>
       <r>   -15.6639     0.0000     0.0000 </r>
       <r>   -15.5464     0.0000     0.0000 </r>
       <r>   -15.4289     0.0000     0.0000 </r>
       <r>   -15.3115     0.0000     0.0000 </r>
       <r>   -15.1940     0.0000     0.0000 </r>
       <r>   -15.0766     0.0000     0.0000 </r>
       <r>   -14.9591     0.0000     0.0000 </r>
       <r>   -14.8417     0.0000     0.0000 </r>
       <r>   -14.7242     0.0000     0.0000 </r>
       <r>   -14.6068     0.0000     0.0000 </r>
       <r>   -14.4893     0.0000     0.0000 </r>
       <r>   -14.3719     0.0000     0.0000 </r>
       <r>   -14.2544     0.0000     0.0000 </r>
       <r>   -14.1370     0.0000     0.0000 </r>
       <r>   -14.0195     0.0000     0.0000 </r>
       <r>   -13.9021     0.0000     0.0000 </r>
       <r>   -13.7846     0.0000     0.0000 </r>
       <r>   -13.6672     0.0000     0.0000 </r>
       <r>   -13.5497     0.0000     0.0000 </r>
       <r>   -13.4322     0.0000     0.0000 </r>
       <r>   -13.3148     0.0000     0.0000 </r>
       <r>   -13.1973     0.0000     0.0000 </r>
       <r>   -13.0799     0.0000     0.0000 </r>
       <r>   -12.9624     0.0000     0.0000 </r>
       <r>   -12.8450     0.0000     0.0000 </r>
       <r>   -12.7275     0.0000     0.0000 </r>
       <r>   -12.6101     0.0000     0.0000 </r>
       <r>   -12.4926     0.0000     0.0000 </r>
       <r>   -12.3752     0.0000     0.0000 </r>
       <r>   -12.2577     0.0000     0.0000 </r>
       <r>   -12.1403     0.0000     0.0000 </r>
       <r>   -12.0228     0.0000     0.0000 </r>
       <r>   -11.9054     0.0000     0.0000 </r>
       <r>   -11.7879     0.0000     0.0000 </r>
       <r>   -11.6705     0.0000     0.0000 </r>
       <r>   -11.5530     0.0000     0.0000 </r>
       <r>   -11.4355     0.0000     0.0000 </r>
       <r>   -11.3181     0.0000     0.0000 </r>
       <r>   -11.2006     0.0000     0.0000 </r>
       <r>   -11.0832     0.0000     0.0000 </r>
       <r>   -10.9657     0.0000     0.0000 </r>
       <r>   -10.8483     0.0000     0.0000 </r>
       <r>   -10.7308     0.0000     0.0000 </r>
       <r>   -10.6134     0.0000     0.0000 </r>
       <r>   -10.4959     0.0000     0.0000 </r>
       <r>   -10.3785     0.0000     0.0000 </r>
       <r>   -10.2610     0.0000     0.0000 </r>
       <r>   -10.1436     0.0000     0.0000 </r>
       <r>   -10.0261     0.0000     0.0000 </r>
       <r>    -9.9087     0.0000     0.0000 </r>
       <r>    -9.7912     0.0000     0.0000 </r>
       <r>    -9.6737     0.0000     0.0000 </r>
       <r>    -9.5563     0.0000     0.0000 </r>
       <r>    -9.4388     0.0000     0.0000 </r>
       <r>    -9.3214     0.0000     0.0000 </r>
       <r>    -9.2039     0.0000     0.0000 </r>
       <r>    -9.0865     0.0000     0.0000 </r>
       <r>    -8.9690     0.0000     0.0000 </r>
       <r>    -8.8516     0.0000     0.0000 </r>
       <r>    -8.7341     0.0000     0.0000 </r>
       <r>    -8.6167     0.0000     0.0000 </r>
       <r>    -8.4992     0.0000     0.0000 </r>
       <r>    -8.3818     0.0000     0.0000 </r>
       <r>    -8.2643     0.0000     0.0000 </r>
       <r>    -8.1469     0.0000     0.0000 </r>
       <r>    -8.0294     0.0000     0.0000 </r>
       <r>    -7.9120     0.0000     0.0000 </r>
       <r>    -7.7945     0.0000     0.0000 </r>
       <r>    -7.6770     0.0000     0.0000 </r>
       <r>    -7.5596     0.0000     0.0000 </r>
       <r>    -7.4421     0.0000     0.0000 </r>
       <r>    -7.3247     0.0000     0.0000 </r>
       <r>    -7.2072     0.0000     0.0000 </r>
       <r>    -7.0898     0.0000     0.0000 </r>
       <r>    -6.9723     0.0000     0.0000 </r>
       <r>    -6.8549     0.0000     0.0000 </r>
       <r>    -6.7374     0.0000     0.0000 </r>
       <r>    -6.6200     0.0000     0.0000 </r>
       <r>    -6.5025     0.0000     0.0000 </r>
       <r>    -6.3851     0.0000     0.0000 </r>
       <r>    -6.2676     0.0000     0.0000 </r>
       <r>    -6.1502     0.0000     0.0000 </r>
       <r>    -6.0327     0.0000     0.0000 </r>
       <r>    -5.9152     0.0000     0.0000 </r>
       <r>    -5.7978     0.0000     0.0000 </r>
       <r>    -5.6803     0.0000     0.0000 </r>
       <r>    -5.5629     0.0000     0.0000 </r>
       <r>    -5.4454     0.0000     0.0000 </r>
       <r>    -5.3280     0.0000     0.0000 </r>
       <r>    -5.2105     0.0000     0.0000 </r>
       <r>    -5.0931     0.0000     0.0000 </r>
       <r>    -4.9756     0.0000     0.0000 </r>
       <r>    -4.8582     0.0000     0.0000 </r>
       <r>    -4.7407     0.0000     0.0000 </r>
       <r>    -4.6233     0.0000     0.0000 </r>
       <r>    -4.5058     0.0000     0.0000 </r>
       <r>    -4.3884     0.0000     0.0000 </r>
       <r>    -4.2709     0.0000     0.0000 </r>
       <r>    -4.1535     0.0000     0.0000 </r>
       <r>    -4.0360     0.0000     0.0000 </r>
       <r>    -3.9185     0.0000     0.0000 </r>
       <r>    -3.8011     0.0000     0.0000 </r>
       <r>    -3.6836     0.0000     0.0000 </r>
       <r>    -3.5662     0.0000     0.0000 </r>
       <r>    -3.4487     0.0000     0.0000 </r>
       <r>    -3.3313     0.0000     0.0000 </r>
       <r>    -3.2138     0.0000     0.0000 </r>
       <r>    -3.0964     0.0000     0.0000 </r>
       <r>    -2.9789     0.0000     0.0000 </r>
       <r>    -2.8615     0.0000     0.0000 </r>
       <r>    -2.7440     0.0000     0.0000 </r>
       <r>    -2.6266     0.0000     0.0000 </r>
       <r>    -2.5091     0.0000     0.0000 </r>
       <r>    -2.3917     0.0000     0.0000 </r>
       <r>    -2.2742     0.0000     0.0000 </r>
       <r>    -2.1568     0.0000     0.0000 </r>
       <r>    -2.0393     0.0000     0.0000 </r>
       <r>    -1.9218     0.0000     0.0000 </r>
       <r>    -1.8044     0.0000     0.0000 </r>
       <r>    -1.6869     0.0000     0.0000 </r>
       <r>    -1.5695     0.0000     0.0000 </r>
       <r>    -1.4520     0.0000     0.0000 </r>
       <r>    -1.3346     0.0000     0.0000 </r>
       <r>    -1.2171     0.0000     0.0000 </r>
       <r>    -1.0997     0.0000     0.0000 </r>
       <r>    -0.9822     0.0000     0.0000 </r>
       <r>    -0.8648     0.0000     0.0000 </r>
       <r>    -0.7473     0.0000     0.0000 </r>
       <r>    -0.6299     0.0000     0.0000 </r>
       <r>    -0.5124     0.0000     0.0000 </r>
       <r>    -0.3950     0.0000     0.0000 </r>
       <r>    -0.2775     0.0000     0.0000 </r>
       <r>    -0.1600     0.0000     0.0000 </r>
       <r>    -0.0426     0.0000     0.0000 </r>
       <r>     0.0749     0.0000     0.0000 </r>
       <r>     0.1923     0.0000     0.0000 </r>
       <r>     0.3098     0.0000     0.0000 </r>
       <r>     0.4272     0.0000     0.0000 </r>
       <r>     0.5447     0.0000     0.0000 </r>
       <r>     0.6621     0.0000     0.0000 </r>
       <r>     0.7796     0.0000     0.0000 </r>
       <r>     0.8970     0.0000     0.0000 </r>
       <r>     1.0145     0.0000     0.0000 </r>
       <r>     1.1319     0.0000     0.0000 </r>
       <r>     1.2494     0.0000     0.0000 </r>
       <r>     1.3668     0.0000     0.0000 </r>
       <r>     1.4843     0.0000     0.0000 </r>
       <r>     1.6017     0.0000     0.0000 </r>
       <r>     1.7192     0.0000     0.0000 </r>
       <r>     1.8367     0.0000     0.0000 </r>
       <r>     1.9541     0.0000     0.0000 </r>
       <r>     2.0716     0.0000     0.0000 </r>
       <r>     2.1890     0.0000     0.0000 </r>
       <r>     2.3065     0.0000     0.0000 </r>
       <r>     2.4239     0.0000     0.0000 </r>
       <r>     2.5414     0.0000     0.0000 </r>
       <r>     2.6588     0.0000     0.0000 </r>
       <r>     2.7763     0.0000     0.0000 </r>
       <r>     2.8937     0.0000     0.0000 </r>
       <r>     3.0112     0.0000     0.0000 </r>
       <r>     3.1286     0.0000     0.0000 </r>
       <r>     3.2461     0.0000     0.0000 </r>
       <r>     3.3635     0.0000     0.0000 </r>
       <r>     3.4810     0.0000     0.0000 </r>
       <r>     3.5985     0.0000     0.0000 </r>
       <r>     3.7159     0.0000     0.0000 </r>
       <r>     3.8334     0.0000     0.0000 </r>
       <r>     3.9508     0.0000     0.0000 </r>
       <r>     4.0683     0.0000     0.0000 </r>
       <r>     4.1857     0.0000     0.0000 </r>
       <r>     4.3032     0.0000     0.0000 </r>
       <r>     4.4206     0.0000     0.0000 </r>
       <r>     4.5381     0.0000     0.0000 </r>
       <r>     4.6555     0.0000     0.0000 </r>
       <r>     4.7730     0.0000     0.0000 </r>
       <r>     4.8904     0.0000     0.0000 </r>
       <r>     5.0079     0.0000     0.0000 </r>
       <r>     5.1253     0.0000     0.0000 </r>
       <r>     5.2428     0.0000     0.0000 </r>
       <r>     5.3602     0.0000     0.0000 </r>
       <r>     5.4777     0.0000     0.0000 </r>
       <r>     5.5952     0.0000     0.0000 </r>
       <r>     5.7126     0.0000     0.0000 </r>
       <r>     5.8301     0.0000     0.0000 </r>
       <r>     5.9475     0.0000     0.0000 </r>
       <r>     6.0650     0.0000     0.0000 </r>
       <r>     6.1824     0.0000     0.0000 </r>
       <r>     6.2999     0.0000     0.0000 </r>
       <r>     6.4173     0.0000     0.0000 </r>
       <r>     6.5348     0.0000     0.0000 </r>
       <r>     6.6522     0.0000     0.0000 </r>
       <r>     6.7697     0.0000     0.0000 </r>
       <r>     6.8871     0.0000     0.0000 </r>
       <r>     7.0046     0.0000     0.0000 </r>
       <r>     7.1220     0.0000     0.0000 </r>
       <r>     7.2395     0.0000     0.0000 </r>
       <r>     7.3569     0.0000     0.0000 </r>
       <r>     7.4744     0.0000     0.0000 </r>
       <r>     7.5919     0.0000     0.0000 </r>
       <r>     7.7093     0.0000     0.0000 </r>
       <r>     7.8268     0.0000     0.0000 </r>
       <r>     7.9442     0.0000     0.0000 </r>
       <r>     8.0617     0.0000     0.0000 </r>
       <r>     8.1791     0.0000     0.0000 </r>
       <r>     8.2966     0.0000     0.0000 </r>
       <r>     8.4140     0.0000     0.0000 </r>
       <r>     8.5315     0.0000     0.0000 </r>
       <r>     8.6489     0.0000     0.0000 </r>
       <r>     8.7664     0.0000     0.0000 </r>
       <r>     8.8838     0.0000     0.0000 </r>
       <r>     9.0013     0.0000     0.0000 </r>
       <r>     9.1187     0.0000     0.0000 </r>
       <r>     9.2362     0.0000     0.0000 </r>
       <r>     9.3537     0.0000     0.0000 </r>
       <r>     9.4711     0.0000     0.0000 </r>
       <r>     9.5886     0.0000     0.0000 </r>
       <r>     9.7060     0.0000     0.0000 </r>
       <r>     9.8235     0.0000     0.0000 </r>
       <r>     9.9409     0.0000     0.0000 </r>
       <r>    10.0584     0.0000     0.0000 </r>
       <r>    10.1758     0.0000     0.0000 </r>
       <r>    10.2933     0.0000     0.0000 </r>
       <r>    10.4107     0.0000     0.0000 </r>
       <r>    10.5282     0.0000     0.0000 </r>
       <r>    10.6456     0.0000     0.0000 </r>
       <r>    10.7631     0.0000     0.0000 </r>
       <r>    10.8805     0.0000     0.0000 </r>
       <r>    10.9980     0.0000     0.0000 </r>
       <r>    11.1154     0.0000     0.0000 </r>
       <r>    11.2329     0.0000     0.0000 </r>
       <r>    11.3504     0.0000     0.0000 </r>
       <r>    11.4678     0.0000     0.0000 </r>
       <r>    11.5853     0.0000     0.0000 </r>
       <r>    11.7027     0.0000     0.0000 </r>
       <r>    11.8202     0.0000     0.0000 </r>
       <r>    11.9376     0.0000     0.0000 </r>
       <r>    12.0551     0.0000     0.0000 </r>
       <r>    12.1725     0.0000     0.0000 </r>
       <r>    12.2900     0.0000     0.0000 </r>
       <r>    12.4074     0.0000     0.0000 </r>
       <r>    12.5249     0.0000     0.0000 </r>
       <r>    12.6423     0.0000     0.0000 </r>
       <r>    12.7598     0.0000     0.0000 </r>
       <r>    12.8772     0.0000     0.0000 </r>
       <r>    12.9947     0.0000     0.0000 </r>
      </set>
     </set>
    </array>
   </total>
  </dos>
 </calculation>
 <structure name="finalpos" >
  <crystal>
   <varray name="basis" >
    <v>       4.30014086       0.00000000       0.00000000 </v>
    <v>       0.00000000       4.30014086       0.00000000 </v>
    <v>       0.00000000       0.00000000       6.14586115 </v>
   </varray>
   <i name="volume">    113.64441771 </i>
   <varray name="rec_basis" >
    <v>       0.23255052       0.00000000       0.00000000 </v>
    <v>       0.00000000       0.23255052       0.00000000 </v>
    <v>       0.00000000       0.00000000       0.16271113 </v>
   </varray>
  </crystal>
  <varray name="positions" >
   <v>       0.50000000       0.00000000       0.72573602 </v>
   <v>       0.00000000       0.50000000       0.27426400 </v>
   <v>       0.00000000       0.00000000       0.00000000 </v>
   <v>       0.50000000       0.50000000       0.50000000 </v>
  </varray>
 </structure>
</modeling>
