   4   4   0   0
  0.2841110E+02  0.4300141E-09  0.4300141E-09  0.6145861E-09  0.5000000E-15
  1.000000000000000E-004
  CAR 
 Ga2BiAs                                 
     14.45078866    -22.47232928  301      3.76832883      1.00000000
    -22.472  0.0000E+00  0.0000E+00
    -22.349  0.0000E+00  0.0000E+00
    -22.226  0.0000E+00  0.0000E+00
    -22.103 -0.4986E-27 -0.6137E-28
    -21.980 -0.7205E-23 -0.8868E-24
    -21.857 -0.4849E-19 -0.5968E-20
    -21.734 -0.1518E-15 -0.1869E-16
    -21.611 -0.2143E-12 -0.2639E-13
    -21.488 -0.1429E-09 -0.1761E-10
    -21.365 -0.4391E-07 -0.5422E-08
    -21.242 -0.6159E-05 -0.7635E-06
    -21.118 -0.3891E-03 -0.4865E-04
    -20.995 -0.1078E-01 -0.1375E-02
    -20.872 -0.1229E+00 -0.1650E-01
    -20.749 -0.4564E+00 -0.7266E-01
    -20.626  0.4982E+00 -0.1135E-01
    -20.503  0.5782E+01  0.7002E+00
    -20.380  0.1170E+02  0.2141E+01
    -20.257  0.1099E+02  0.3493E+01
    -20.134  0.4551E+01  0.4053E+01
    -20.011  0.6366E-01  0.4061E+01
    -19.888 -0.4037E+00  0.4011E+01
    -19.765 -0.8530E-01  0.4001E+01
    -19.642 -0.6330E-02  0.4000E+01
    -19.518 -0.1965E-03  0.4000E+01
    -19.395 -0.2693E-05  0.4000E+01
    -19.272 -0.1667E-07  0.4000E+01
    -19.149 -0.4719E-10  0.4000E+01
    -19.026 -0.6134E-13  0.4000E+01
    -18.903 -0.1539E-18  0.4000E+01
    -18.780 -0.4358E-15  0.4000E+01
    -18.657 -0.5568E-12  0.4000E+01
    -18.534 -0.3382E-09  0.4000E+01
    -18.411 -0.9497E-07  0.4000E+01
    -18.288 -0.1226E-04  0.4000E+01
    -18.165 -0.7197E-03  0.4000E+01
    -18.042 -0.1876E-01  0.3998E+01
    -17.918 -0.2040E+00  0.3972E+01
    -17.795 -0.7215E+00  0.3884E+01
    -17.672  0.9685E+00  0.4003E+01
    -17.549  0.9611E+01  0.5186E+01
    -17.426  0.1783E+02  0.7380E+01
    -17.303  0.1507E+02  0.9235E+01
    -17.180  0.6404E+01  0.1002E+02
    -17.057  0.4971E+00  0.1008E+02
    -16.934 -0.5265E+00  0.1002E+02
    -16.811 -0.1481E+00  0.1000E+02
    -16.688 -0.1379E-01  0.1000E+02
    -16.565 -0.5303E-03  0.1000E+02
    -16.442 -0.8949E-05  0.1000E+02
    -16.318 -0.6801E-07  0.1000E+02
    -16.195 -0.2359E-09  0.1000E+02
    -16.072 -0.3789E-12  0.1000E+02
    -15.949  0.0000E+00  0.1000E+02
    -15.826  0.0000E+00  0.1000E+02
    -15.703  0.0000E+00  0.1000E+02
    -15.580  0.0000E+00  0.1000E+02
    -15.457  0.0000E+00  0.1000E+02
    -15.334  0.0000E+00  0.1000E+02
    -15.211  0.0000E+00  0.1000E+02
    -15.088  0.0000E+00  0.1000E+02
    -14.965  0.0000E+00  0.1000E+02
    -14.842  0.0000E+00  0.1000E+02
    -14.718  0.0000E+00  0.1000E+02
    -14.595  0.0000E+00  0.1000E+02
    -14.472  0.0000E+00  0.1000E+02
    -14.349  0.0000E+00  0.1000E+02
    -14.226  0.0000E+00  0.1000E+02
    -14.103  0.0000E+00  0.1000E+02
    -13.980  0.0000E+00  0.1000E+02
    -13.857  0.0000E+00  0.1000E+02
    -13.734  0.0000E+00  0.1000E+02
    -13.611  0.0000E+00  0.1000E+02
    -13.488  0.0000E+00  0.1000E+02
    -13.365  0.0000E+00  0.1000E+02
    -13.242  0.0000E+00  0.1000E+02
    -13.118  0.0000E+00  0.1000E+02
    -12.995  0.0000E+00  0.1000E+02
    -12.872  0.0000E+00  0.1000E+02
    -12.749  0.0000E+00  0.1000E+02
    -12.626  0.0000E+00  0.1000E+02
    -12.503  0.0000E+00  0.1000E+02
    -12.380  0.0000E+00  0.1000E+02
    -12.257  0.0000E+00  0.1000E+02
    -12.134  0.0000E+00  0.1000E+02
    -12.011  0.0000E+00  0.1000E+02
    -11.888  0.0000E+00  0.1000E+02
    -11.765  0.0000E+00  0.1000E+02
    -11.642  0.0000E+00  0.1000E+02
    -11.518  0.0000E+00  0.1000E+02
    -11.395  0.0000E+00  0.1000E+02
    -11.272  0.0000E+00  0.1000E+02
    -11.149  0.0000E+00  0.1000E+02
    -11.026  0.0000E+00  0.1000E+02
    -10.903  0.0000E+00  0.1000E+02
    -10.780  0.0000E+00  0.1000E+02
    -10.657  0.0000E+00  0.1000E+02
    -10.534  0.0000E+00  0.1000E+02
    -10.411 -0.1326E-27  0.1000E+02
    -10.288 -0.1877E-23  0.1000E+02
    -10.165 -0.1241E-19  0.1000E+02
    -10.042 -0.3828E-16  0.1000E+02
     -9.918 -0.5347E-13  0.1000E+02
     -9.795 -0.3552E-10  0.1000E+02
     -9.672 -0.1094E-07  0.1000E+02
     -9.549 -0.1552E-05  0.1000E+02
     -9.426 -0.1004E-03  0.1000E+02
     -9.303 -0.2892E-02  0.1000E+02
     -9.180 -0.3515E-01  0.9995E+01
     -9.057 -0.1474E+00  0.9977E+01
     -8.934  0.9391E-01  0.9989E+01
     -8.811  0.1797E+01  0.1021E+02
     -8.688  0.3735E+01  0.1067E+02
     -8.565  0.3480E+01  0.1110E+02
     -8.442  0.2403E+01  0.1139E+02
     -8.318  0.2049E+01  0.1165E+02
     -8.195  0.1799E+01  0.1187E+02
     -8.072  0.1152E+01  0.1201E+02
     -7.949  0.1126E+01  0.1215E+02
     -7.826  0.1577E+01  0.1234E+02
     -7.703  0.1536E+01  0.1253E+02
     -7.580  0.1363E+01  0.1270E+02
     -7.457  0.1329E+01  0.1286E+02
     -7.334  0.1358E+01  0.1303E+02
     -7.211  0.1494E+01  0.1321E+02
     -7.088  0.1989E+01  0.1346E+02
     -6.965  0.2482E+01  0.1376E+02
     -6.842  0.1715E+01  0.1397E+02
     -6.718  0.3592E+00  0.1402E+02
     -6.595 -0.9919E-01  0.1401E+02
     -6.472 -0.4571E-01  0.1400E+02
     -6.349 -0.5516E-02  0.1400E+02
     -6.226 -0.2678E-03  0.1400E+02
     -6.103 -0.5706E-05  0.1400E+02
     -5.980 -0.5500E-07  0.1400E+02
     -5.857 -0.2433E-09  0.1400E+02
     -5.734 -0.4978E-12  0.1400E+02
     -5.611 -0.4330E-15  0.1400E+02
     -5.488  0.0000E+00  0.1400E+02
     -5.365  0.0000E+00  0.1400E+02
     -5.242  0.0000E+00  0.1400E+02
     -5.118  0.0000E+00  0.1400E+02
     -4.995 -0.1785E-28  0.1400E+02
     -4.872 -0.2805E-24  0.1400E+02
     -4.749 -0.2057E-20  0.1400E+02
     -4.626 -0.7043E-17  0.1400E+02
     -4.503 -0.1095E-13  0.1400E+02
     -4.380 -0.8050E-11  0.1400E+02
     -4.257 -0.2751E-08  0.1400E+02
     -4.134 -0.4332E-06  0.1400E+02
     -4.011 -0.3112E-04  0.1400E+02
     -3.888 -0.9998E-03  0.1400E+02
     -3.765 -0.1367E-01  0.1400E+02
     -3.642 -0.6754E-01  0.1399E+02
     -3.518  0.4797E-03  0.1399E+02
     -3.395  0.7646E+00  0.1408E+02
     -3.272  0.1819E+01  0.1431E+02
     -3.149  0.1820E+01  0.1453E+02
     -3.026  0.1244E+01  0.1469E+02
     -2.903  0.9562E+00  0.1480E+02
     -2.780  0.8608E+00  0.1491E+02
     -2.657  0.8017E+00  0.1501E+02
     -2.534  0.7558E+00  0.1510E+02
     -2.411  0.7201E+00  0.1519E+02
     -2.288  0.6918E+00  0.1527E+02
     -2.165  0.6688E+00  0.1536E+02
     -2.042  0.6500E+00  0.1544E+02
     -1.918  0.6342E+00  0.1551E+02
     -1.795  0.6209E+00  0.1559E+02
     -1.672  0.6088E+00  0.1567E+02
     -1.549  0.5969E+00  0.1574E+02
     -1.426  0.6076E+00  0.1581E+02
     -1.303  0.6777E+00  0.1590E+02
     -1.180  0.7411E+00  0.1599E+02
     -1.057  0.7419E+00  0.1608E+02
     -0.934  0.6814E+00  0.1616E+02
     -0.811  0.5901E+00  0.1624E+02
     -0.688  0.5532E+00  0.1630E+02
     -0.565  0.5498E+00  0.1637E+02
     -0.442  0.5477E+00  0.1644E+02
     -0.318  0.5451E+00  0.1651E+02
     -0.195  0.5432E+00  0.1657E+02
     -0.072  0.5424E+00  0.1664E+02
      0.051  0.5421E+00  0.1671E+02
      0.174  0.5291E+00  0.1677E+02
      0.297  0.4486E+00  0.1683E+02
      0.420  0.5006E+00  0.1689E+02
      0.543  0.1772E+01  0.1711E+02
      0.666  0.3609E+01  0.1755E+02
      0.789  0.3131E+01  0.1794E+02
      0.912  0.3411E+01  0.1836E+02
      1.035  0.5999E+01  0.1909E+02
      1.158  0.6492E+01  0.1989E+02
      1.282  0.5683E+01  0.2059E+02
      1.405  0.4610E+01  0.2116E+02
      1.528  0.2476E+01  0.2147E+02
      1.651  0.1390E+01  0.2164E+02
      1.774  0.1892E+01  0.2187E+02
      1.897  0.2079E+01  0.2213E+02
      2.020  0.1953E+01  0.2237E+02
      2.143  0.2031E+01  0.2262E+02
      2.266  0.1806E+01  0.2284E+02
      2.389  0.1439E+01  0.2301E+02
      2.512  0.2546E+01  0.2333E+02
      2.635  0.4596E+01  0.2389E+02
      2.758  0.4177E+01  0.2441E+02
      2.882  0.2003E+01  0.2465E+02
      3.005  0.1052E+01  0.2478E+02
      3.128  0.1005E+01  0.2491E+02
      3.251  0.1000E+01  0.2503E+02
      3.374  0.9467E+00  0.2515E+02
      3.497  0.1126E+01  0.2529E+02
      3.620  0.2021E+01  0.2553E+02
      3.743  0.3090E+01  0.2591E+02
      3.866  0.3238E+01  0.2631E+02
      3.989  0.2330E+01  0.2660E+02
      4.112  0.1497E+01  0.2678E+02
      4.235  0.1808E+01  0.2701E+02
      4.358  0.3049E+01  0.2738E+02
      4.482  0.4859E+01  0.2798E+02
      4.605  0.5762E+01  0.2869E+02
      4.728  0.4583E+01  0.2925E+02
      4.851  0.3596E+01  0.2970E+02
      4.974  0.4796E+01  0.3029E+02
      5.097  0.5139E+01  0.3092E+02
      5.220  0.2573E+01  0.3124E+02
      5.343  0.7972E+00  0.3133E+02
      5.466  0.8269E+00  0.3144E+02
      5.589  0.1369E+01  0.3160E+02
      5.712  0.1675E+01  0.3181E+02
      5.835  0.1206E+01  0.3196E+02
      5.958  0.1986E+01  0.3220E+02
      6.082  0.4225E+01  0.3272E+02
      6.205  0.4593E+01  0.3329E+02
      6.328  0.3796E+01  0.3376E+02
      6.451  0.3218E+01  0.3415E+02
      6.574  0.3573E+01  0.3459E+02
      6.697  0.3814E+01  0.3506E+02
      6.820  0.2566E+01  0.3538E+02
      6.943  0.1563E+01  0.3557E+02
      7.066  0.1378E+01  0.3574E+02
      7.189  0.1349E+01  0.3590E+02
      7.312  0.1302E+01  0.3606E+02
      7.435  0.1259E+01  0.3622E+02
      7.558  0.1226E+01  0.3637E+02
      7.682  0.1201E+01  0.3652E+02
      7.805  0.1182E+01  0.3666E+02
      7.928  0.1168E+01  0.3681E+02
      8.051  0.1160E+01  0.3695E+02
      8.174  0.1156E+01  0.3709E+02
      8.297  0.1157E+01  0.3724E+02
      8.420  0.1195E+01  0.3738E+02
      8.543  0.1352E+01  0.3755E+02
      8.666  0.1513E+01  0.3773E+02
      8.789  0.1303E+01  0.3790E+02
      8.912  0.7961E+00  0.3799E+02
      9.035  0.8069E+00  0.3809E+02
      9.158  0.1608E+01  0.3829E+02
      9.282  0.2325E+01  0.3858E+02
      9.405  0.2722E+01  0.3891E+02
      9.528  0.3476E+01  0.3934E+02
      9.651  0.3924E+01  0.3982E+02
      9.774  0.3342E+01  0.4023E+02
      9.897  0.2691E+01  0.4056E+02
     10.020  0.2659E+01  0.4089E+02
     10.143  0.3280E+01  0.4130E+02
     10.266  0.3472E+01  0.4172E+02
     10.389  0.2678E+01  0.4205E+02
     10.512  0.2625E+01  0.4238E+02
     10.635  0.3340E+01  0.4279E+02
     10.758  0.3090E+01  0.4317E+02
     10.882  0.2105E+01  0.4343E+02
     11.005  0.1869E+01  0.4366E+02
     11.128  0.2635E+01  0.4398E+02
     11.251  0.3477E+01  0.4441E+02
     11.374  0.3918E+01  0.4489E+02
     11.497  0.3881E+01  0.4537E+02
     11.620  0.3284E+01  0.4577E+02
     11.743  0.3294E+01  0.4618E+02
     11.866  0.3534E+01  0.4661E+02
     11.989  0.2451E+01  0.4691E+02
     12.112  0.1136E+01  0.4705E+02
     12.235  0.1150E+01  0.4720E+02
     12.358  0.2460E+01  0.4750E+02
     12.482  0.2941E+01  0.4786E+02
     12.605  0.1275E+01  0.4802E+02
     12.728 -0.9530E-02  0.4802E+02
     12.851 -0.1103E+00  0.4800E+02
     12.974 -0.2101E-01  0.4800E+02
     13.097 -0.1452E-02  0.4800E+02
     13.220 -0.4285E-04  0.4800E+02
     13.343 -0.5683E-06  0.4800E+02
     13.466 -0.3460E-08  0.4800E+02
     13.589 -0.9773E-11  0.4800E+02
     13.712 -0.1299E-13  0.4800E+02
     13.835  0.0000E+00  0.4800E+02
     13.958  0.0000E+00  0.4800E+02
     14.082  0.0000E+00  0.4800E+02
     14.205  0.0000E+00  0.4800E+02
     14.328  0.0000E+00  0.4800E+02
     14.451  0.0000E+00  0.4800E+02
