    4    4    1    1
  0.2841110E+02  0.4300141E-09  0.4300141E-09  0.6145861E-09  0.5000000E-15
  1.000000000000000E-004
  CAR 
 Ga2BiAs                                 
     26     25     48
 
  0.0000000E+00  0.0000000E+00  0.0000000E+00  0.4000000E-01
    1      -20.472322   1.000000
    2      -20.472322   1.000000
    3      -20.309757   1.000000
    4      -20.309757   1.000000
    5      -17.535361   1.000000
    6      -17.535361   1.000000
    7      -17.467939   1.000000
    8      -17.467939   1.000000
    9      -17.323725   1.000000
   10      -17.323725   1.000000
   11       -8.788803   1.000000
   12       -8.788803   1.000000
   13       -6.937919   1.000000
   14       -6.937919   1.000000
   15       -3.355816   1.000000
   16       -3.355816   1.000000
   17        0.608881   1.000000
   18        0.608881   1.000000
   19        0.948562   1.000000
   20        0.948562   1.000000
   21        2.198501   1.000000
   22        2.198501   1.000000
   23        2.519821   1.000000
   24        2.519821   1.000000
   25        3.626639   0.962788
   26        3.626639   0.962788
   27        3.887948   0.080842
   28        3.887948   0.080842
   29        4.533098  -0.000000
   30        4.533098  -0.000000
   31        4.594467  -0.000000
   32        4.594467  -0.000000
   33        6.230260  -0.000000
   34        6.230260  -0.000000
   35        6.434502  -0.000000
   36        6.434502  -0.000000
   37        6.630825  -0.000000
   38        6.630825  -0.000000
   39        9.175050  -0.000000
   40        9.175050  -0.000000
   41       11.466537   0.000000
   42       11.466537   0.000000
   43       11.886731   0.000000
   44       11.886731   0.000000
   45       12.375406   0.000000
   46       12.375406   0.000000
   47       12.400718   0.000000
   48       12.400718   0.000000
 
  0.0000000E+00  0.0000000E+00  0.2083333E-01  0.4000000E-01
    1      -20.472322   1.000000
    2      -20.472322   1.000000
    3      -20.309757   1.000000
    4      -20.309757   1.000000
    5      -17.535361   1.000000
    6      -17.535361   1.000000
    7      -17.467939   1.000000
    8      -17.467939   1.000000
    9      -17.323725   1.000000
   10      -17.323725   1.000000
   11       -8.787539   1.000000
   12       -8.787539   1.000000
   13       -6.941500   1.000000
   14       -6.941500   1.000000
   15       -3.350345   1.000000
   16       -3.350345   1.000000
   17        0.610231   1.000000
   18        0.610231   1.000000
   19        0.949920   1.000000
   20        0.949920   1.000000
   21        2.160911   1.000000
   22        2.160911   1.000000
   23        2.542747   1.000000
   24        2.542747   1.000000
   25        3.634778   0.948108
   26        3.634778   0.948108
   27        3.881017   0.097066
   28        3.881017   0.097066
   29        4.530344  -0.000000
   30        4.530344  -0.000000
   31        4.601480  -0.000000
   32        4.601480  -0.000000
   33        6.237318  -0.000000
   34        6.237318  -0.000000
   35        6.441978  -0.000000
   36        6.441978  -0.000000
   37        6.626632  -0.000000
   38        6.626632  -0.000000
   39        9.184370  -0.000000
   40        9.184370  -0.000000
   41       11.457743   0.000000
   42       11.457743   0.000000
   43       11.879244   0.000000
   44       11.879244   0.000000
   45       12.319031   0.000000
   46       12.319422   0.000000
   47       12.402349   0.000000
   48       12.402391   0.000000
 
  0.0000000E+00  0.0000000E+00  0.4166667E-01  0.4000000E-01
    1      -20.472323   1.000000
    2      -20.472322   1.000000
    3      -20.309763   1.000000
    4      -20.309763   1.000000
    5      -17.535359   1.000000
    6      -17.535359   1.000000
    7      -17.467943   1.000000
    8      -17.467943   1.000000
    9      -17.323735   1.000000
   10      -17.323735   1.000000
   11       -8.783730   1.000000
   12       -8.783730   1.000000
   13       -6.952173   1.000000
   14       -6.952173   1.000000
   15       -3.334008   1.000000
   16       -3.334008   1.000000
   17        0.614262   1.000000
   18        0.614262   1.000000
   19        0.953987   1.000000
   20        0.953987   1.000000
   21        2.071050   1.000000
   22        2.071050   1.000000
   23        2.588493   1.000000
   24        2.588493   1.000000
   25        3.659297   0.893887
   26        3.659297   0.893887
   27        3.860559   0.151978
   28        3.860559   0.151978
   29        4.525444  -0.000001
   30        4.525444  -0.000001
   31        4.619274  -0.000000
   32        4.619274  -0.000000
   33        6.257595  -0.000000
   34        6.257595  -0.000000
   35        6.464278  -0.000000
   36        6.464278  -0.000000
   37        6.614901  -0.000000
   38        6.614901  -0.000000
   39        9.212028  -0.000000
   40        9.212028  -0.000000
   41       11.431586   0.000000
   42       11.431586   0.000000
   43       11.856693   0.000000
   44       11.856693   0.000000
   45       12.188488   0.000000
   46       12.188491   0.000000
   47       12.405382   0.000000
   48       12.405438   0.000000
 
  0.0000000E+00  0.0000000E+00  0.6250000E-01  0.4000000E-01
    1      -20.472329   1.000000
    2      -20.472329   1.000000
    3      -20.309764   1.000000
    4      -20.309764   1.000000
    5      -17.535365   1.000000
    6      -17.535364   1.000000
    7      -17.467949   1.000000
    8      -17.467949   1.000000
    9      -17.323735   1.000000
   10      -17.323735   1.000000
   11       -8.777378   1.000000
   12       -8.777378   1.000000
   13       -6.969719   1.000000
   14       -6.969719   1.000000
   15       -3.307025   1.000000
   16       -3.307025   1.000000
   17        0.620916   1.000000
   18        0.620916   1.000000
   19        0.960748   1.000000
   20        0.960748   1.000000
   21        1.956159   1.000000
   22        1.956159   1.000000
   23        2.629872   1.000000
   24        2.629872   1.000000
   25        3.700046   0.771108
   26        3.700046   0.771108
   27        3.827524   0.261274
   28        3.827524   0.261274
   29        4.522970  -0.000001
   30        4.522970  -0.000001
   31        4.643645  -0.000000
   32        4.643645  -0.000000
   33        6.288022  -0.000000
   34        6.288022  -0.000000
   35        6.501017  -0.000000
   36        6.501017  -0.000000
   37        6.598595  -0.000000
   38        6.598595  -0.000000
   39        9.257178   0.000000
   40        9.257178   0.000000
   41       11.388722   0.000000
   42       11.388722   0.000000
   43       11.818655   0.000000
   44       11.818655   0.000000
   45       12.027397   0.000000
   46       12.027397   0.000000
   47       12.414072   0.000000
   48       12.414081   0.000000
 
  0.0000000E+00  0.0000000E+00  0.8333333E-01  0.4000000E-01
    1      -20.472327   1.000000
    2      -20.472327   1.000000
    3      -20.309763   1.000000
    4      -20.309763   1.000000
    5      -17.535359   1.000000
    6      -17.535359   1.000000
    7      -17.467948   1.000000
    8      -17.467948   1.000000
    9      -17.323734   1.000000
   10      -17.323734   1.000000
   11       -8.768493   1.000000
   12       -8.768493   1.000000
   13       -6.993786   1.000000
   14       -6.993786   1.000000
   15       -3.269748   1.000000
   16       -3.269748   1.000000
   17        0.630074   1.000000
   18        0.630074   1.000000
   19        0.970171   1.000000
   20        0.970171   1.000000
   21        1.828429   1.000000
   22        1.828429   1.000000
   23        2.655801   1.000000
   24        2.655801   1.000000
   25        3.755633   0.553602
   26        3.755633   0.553602
   27        3.783361   0.436590
   28        3.783361   0.436590
   29        4.525698  -0.000001
   30        4.525698  -0.000001
   31        4.672496  -0.000000
   32        4.672496  -0.000000
   33        6.321738  -0.000000
   34        6.321738  -0.000000
   35        6.551389  -0.000000
   36        6.551389  -0.000000
   37        6.584657  -0.000000
   38        6.584657  -0.000000
   39        9.318540   0.000000
   40        9.318541   0.000000
   41       11.330170   0.000000
   42       11.330170   0.000000
   43       11.762420   0.000000
   44       11.762420   0.000000
   45       11.856294   0.000000
   46       11.856294   0.000000
   47       12.416764   0.000000
   48       12.417465   0.000000
 
  0.0000000E+00  0.0000000E+00  0.1041667E+00  0.4000000E-01
    1      -20.472326   1.000000
    2      -20.472326   1.000000
    3      -20.309764   1.000000
    4      -20.309764   1.000000
    5      -17.535353   1.000000
    6      -17.535353   1.000000
    7      -17.467952   1.000000
    8      -17.467952   1.000000
    9      -17.323736   1.000000
   10      -17.323736   1.000000
   11       -8.757084   1.000000
   12       -8.757084   1.000000
   13       -7.023920   1.000000
   14       -7.023920   1.000000
   15       -3.222632   1.000000
   16       -3.222632   1.000000
   17        0.641529   1.000000
   18        0.641529   1.000000
   19        0.982212   1.000000
   20        0.982212   1.000000
   21        1.693354   1.000000
   22        1.693354   1.000000
   23        2.663473   1.000000
   24        2.663473   1.000000
   25        3.729509   0.660878
   26        3.729509   0.660878
   27        3.823070   0.277710
   28        3.823070   0.277710
   29        4.535761  -0.000000
   30        4.535761  -0.000000
   31        4.704767  -0.000000
   32        4.704767  -0.000000
   33        6.345244  -0.000000
   34        6.345244  -0.000000
   35        6.584878  -0.000000
   36        6.584878  -0.000000
   37        6.616242  -0.000000
   38        6.616242  -0.000000
   39        9.394551   0.000000
   40        9.394551   0.000000
   41       11.257192   0.000000
   42       11.257192   0.000000
   43       11.652281   0.000000
   44       11.652281   0.000000
   45       11.719409   0.000000
   46       11.719409   0.000000
   47       12.424757   0.000000
   48       12.428063   0.000000
 
  0.0000000E+00  0.0000000E+00  0.1250000E+00  0.4000000E-01
    1      -20.472320   1.000000
    2      -20.472320   1.000000
    3      -20.309766   1.000000
    4      -20.309766   1.000000
    5      -17.535338   1.000000
    6      -17.535338   1.000000
    7      -17.467957   1.000000
    8      -17.467957   1.000000
    9      -17.323738   1.000000
   10      -17.323738   1.000000
   11       -8.743166   1.000000
   12       -8.743166   1.000000
   13       -7.059594   1.000000
   14       -7.059594   1.000000
   15       -3.166217   1.000000
   16       -3.166217   1.000000
   17        0.654912   1.000000
   18        0.654912   1.000000
   19        0.996810   1.000000
   20        0.996810   1.000000
   21        1.554060   1.000000
   22        1.554060   1.000000
   23        2.653795   1.000000
   24        2.653795   1.000000
   25        3.667969   0.871085
   26        3.667969   0.871085
   27        3.897181   0.061113
   28        3.897181   0.061113
   29        4.555411  -0.000000
   30        4.555411  -0.000000
   31        4.739748  -0.000000
   32        4.739748  -0.000000
   33        6.343414  -0.000000
   34        6.343414  -0.000000
   35        6.617077  -0.000000
   36        6.617077  -0.000000
   37        6.691985  -0.000000
   38        6.691985  -0.000000
   39        9.483497   0.000000
   40        9.483497   0.000000
   41       11.171135   0.000000
   42       11.171135   0.000000
   43       11.478386   0.000000
   44       11.478386   0.000000
   45       11.631945   0.000000
   46       11.631945   0.000000
   47       12.440023   0.000000
   48       12.450789   0.000000
 
  0.0000000E+00  0.0000000E+00  0.1458333E+00  0.4000000E-01
    1      -20.472313   1.000000
    2      -20.472313   1.000000
    3      -20.309765   1.000000
    4      -20.309765   1.000000
    5      -17.535325   1.000000
    6      -17.535325   1.000000
    7      -17.467956   1.000000
    8      -17.467956   1.000000
    9      -17.323737   1.000000
   10      -17.323737   1.000000
   11       -8.726760   1.000000
   12       -8.726760   1.000000
   13       -7.100227   1.000000
   14       -7.100227   1.000000
   15       -3.101094   1.000000
   16       -3.101094   1.000000
   17        0.669518   1.000000
   18        0.669518   1.000000
   19        1.013891   1.000000
   20        1.013891   1.000000
   21        1.412903   1.000000
   22        1.412903   1.000000
   23        2.629204   1.000000
   24        2.629204   1.000000
   25        3.600286   0.999632
   26        3.600286   0.999632
   27        3.972286  -0.027061
   28        3.972286  -0.027061
   29        4.587165  -0.000000
   30        4.587165  -0.000000
   31        4.776814  -0.000000
   32        4.776814  -0.000000
   33        6.316826  -0.000000
   34        6.316826  -0.000000
   35        6.679319  -0.000000
   36        6.679319  -0.000000
   37        6.779136  -0.000000
   38        6.779136  -0.000000
   39        9.583592   0.000000
   40        9.583592   0.000000
   41       11.073159   0.000000
   42       11.073159   0.000000
   43       11.299918   0.000000
   44       11.299918   0.000000
   45       11.539141   0.000000
   46       11.539141   0.000000
   47       12.313202   0.000000
   48       12.314098   0.000000
 
  0.0000000E+00  0.0000000E+00  0.1666667E+00  0.4000000E-01
    1      -20.472315   1.000000
    2      -20.472315   1.000000
    3      -20.309767   1.000000
    4      -20.309767   1.000000
    5      -17.535322   1.000000
    6      -17.535322   1.000000
    7      -17.467964   1.000000
    8      -17.467964   1.000000
    9      -17.323740   1.000000
   10      -17.323740   1.000000
   11       -8.707900   1.000000
   12       -8.707900   1.000000
   13       -7.145209   1.000000
   14       -7.145209   1.000000
   15       -3.027874   1.000000
   16       -3.027874   1.000000
   17        0.683864   1.000000
   18        0.683864   1.000000
   19        1.033358   1.000000
   20        1.033358   1.000000
   21        1.272440   1.000000
   22        1.272440   1.000000
   23        2.592466   1.000000
   24        2.592466   1.000000
   25        3.528007   1.035373
   26        3.528007   1.035373
   27        4.042794  -0.032735
   28        4.042794  -0.032735
   29        4.633355  -0.000000
   30        4.633355  -0.000000
   31        4.815331  -0.000000
   32        4.815331  -0.000000
   33        6.276274  -0.000000
   34        6.276274  -0.000000
   35        6.761463  -0.000000
   36        6.761463  -0.000000
   37        6.876316  -0.000000
   38        6.876316  -0.000000
   39        9.692973   0.000000
   40        9.692973   0.000000
   41       10.963751   0.000000
   42       10.963751   0.000000
   43       11.126119   0.000000
   44       11.126120   0.000000
   45       11.436419   0.000000
   46       11.436419   0.000000
   47       12.168920   0.000000
   48       12.168989   0.000000
 
  0.0000000E+00  0.0000000E+00  0.1875000E+00  0.4000000E-01
    1      -20.472313   1.000000
    2      -20.472313   1.000000
    3      -20.309767   1.000000
    4      -20.309767   1.000000
    5      -17.535313   1.000000
    6      -17.535313   1.000000
    7      -17.467969   1.000000
    8      -17.467969   1.000000
    9      -17.323740   1.000000
   10      -17.323740   1.000000
   11       -8.686602   1.000000
   12       -8.686602   1.000000
   13       -7.193930   1.000000
   14       -7.193930   1.000000
   15       -2.947175   1.000000
   16       -2.947175   1.000000
   17        0.694366   1.000000
   18        0.694366   1.000000
   19        1.055090   1.000000
   20        1.055090   1.000000
   21        1.137003   1.000000
   22        1.137003   1.000000
   23        2.546135   1.000000
   24        2.546135   1.000000
   25        3.452511   1.024034
   26        3.452511   1.024034
   27        4.104673  -0.019351
   28        4.104673  -0.019351
   29        4.695072  -0.000000
   30        4.695072  -0.000000
   31        4.854635  -0.000000
   32        4.854635  -0.000000
   33        6.229677  -0.000000
   34        6.229677  -0.000000
   35        6.856274  -0.000000
   36        6.856274  -0.000000
   37        6.982302  -0.000000
   38        6.982302  -0.000000
   39        9.809562   0.000000
   40        9.809563   0.000000
   41       10.841979   0.000000
   42       10.841979   0.000000
   43       10.962307   0.000000
   44       10.962307   0.000000
   45       11.324451   0.000000
   46       11.324451   0.000000
   47       12.017833   0.000000
   48       12.017836   0.000000
 
  0.0000000E+00  0.0000000E+00  0.2083333E+00  0.4000000E-01
    1      -20.472309   1.000000
    2      -20.472309   1.000000
    3      -20.309770   1.000000
    4      -20.309770   1.000000
    5      -17.535300   1.000000
    6      -17.535300   1.000000
    7      -17.467975   1.000000
    8      -17.467975   1.000000
    9      -17.323743   1.000000
   10      -17.323743   1.000000
   11       -8.662900   1.000000
   12       -8.662900   1.000000
   13       -7.245795   1.000000
   14       -7.245795   1.000000
   15       -2.859601   1.000000
   16       -2.859601   1.000000
   17        0.691195   1.000000
   18        0.691195   1.000000
   19        1.016932   1.000000
   20        1.016932   1.000000
   21        1.078954   1.000000
   22        1.078954   1.000000
   23        2.492375   1.000000
   24        2.492375   1.000000
   25        3.375019   1.008894
   26        3.375019   1.008894
   27        4.156452  -0.009640
   28        4.156452  -0.009640
   29        4.771048  -0.000000
   30        4.771048  -0.000000
   31        4.894127  -0.000000
   32        4.894128  -0.000000
   33        6.181596  -0.000000
   34        6.181596  -0.000000
   35        6.960022  -0.000000
   36        6.960022  -0.000000
   37        7.095910  -0.000000
   38        7.095910  -0.000000
   39        9.930623   0.000000
   40        9.930623   0.000000
   41       10.706355   0.000000
   42       10.706355   0.000000
   43       10.814128   0.000000
   44       10.814128   0.000000
   45       11.204456   0.000000
   46       11.204456   0.000000
   47       11.863393   0.000000
   48       11.863393   0.000000
 
  0.0000000E+00  0.0000000E+00  0.2291667E+00  0.4000000E-01
    1      -20.472307   1.000000
    2      -20.472307   1.000000
    3      -20.309769   1.000000
    4      -20.309769   1.000000
    5      -17.535290   1.000000
    6      -17.535290   1.000000
    7      -17.467979   1.000000
    8      -17.467979   1.000000
    9      -17.323742   1.000000
   10      -17.323742   1.000000
   11       -8.636831   1.000000
   12       -8.636831   1.000000
   13       -7.300228   1.000000
   14       -7.300228   1.000000
   15       -2.765726   1.000000
   16       -2.765726   1.000000
   17        0.651043   1.000000
   18        0.651043   1.000000
   19        0.935937   1.000000
   20        0.935937   1.000000
   21        1.104747   1.000000
   22        1.104747   1.000000
   23        2.432964   1.000000
   24        2.432964   1.000000
   25        3.296612   1.002128
   26        3.296612   1.002128
   27        4.199064  -0.004717
   28        4.199064  -0.004717
   29        4.856953  -0.000000
   30        4.856953  -0.000000
   31        4.934009  -0.000000
   32        4.934010  -0.000000
   33        6.135054  -0.000000
   34        6.135054  -0.000000
   35        7.070660  -0.000000
   36        7.070660  -0.000000
   37        7.216036  -0.000000
   38        7.216036  -0.000000
   39       10.051315   0.000000
   40       10.051315   0.000000
   41       10.560725   0.000000
   42       10.560725   0.000000
   43       10.683516   0.000000
   44       10.683516   0.000000
   45       11.077720   0.000000
   46       11.077720   0.000000
   47       11.708176   0.000000
   48       11.708176   0.000000
 
  0.0000000E+00  0.0000000E+00  0.2500000E+00  0.4000000E-01
    1      -20.472308   1.000000
    2      -20.472308   1.000000
    3      -20.309771   1.000000
    4      -20.309771   1.000000
    5      -17.535283   1.000000
    6      -17.535283   1.000000
    7      -17.467988   1.000000
    8      -17.467988   1.000000
    9      -17.323744   1.000000
   10      -17.323744   1.000000
   11       -8.608444   1.000000
   12       -8.608444   1.000000
   13       -7.356689   1.000000
   14       -7.356689   1.000000
   15       -2.666096   1.000000
   16       -2.666096   1.000000
   17        0.557541   1.000000
   18        0.557541   1.000000
   19        0.910640   1.000000
   20        0.910640   1.000000
   21        1.132261   1.000000
   22        1.132261   1.000000
   23        2.369349   1.000000
   24        2.369349   1.000000
   25        3.218258   1.000352
   26        3.218258   1.000352
   27        4.234676  -0.002375
   28        4.234676  -0.002375
   29        4.938942  -0.000000
   30        4.938943  -0.000000
   31        4.982800  -0.000000
   32        4.982800  -0.000000
   33        6.092424  -0.000000
   34        6.092424  -0.000000
   35        7.186890  -0.000000
   36        7.186890  -0.000000
   37        7.341683  -0.000000
   38        7.341683  -0.000000
   39       10.158883   0.000000
   40       10.158883   0.000000
   41       10.413825   0.000000
   42       10.413825   0.000000
   43       10.574804   0.000000
   44       10.574804   0.000000
   45       10.945488   0.000000
   46       10.945488   0.000000
   47       11.554700   0.000000
   48       11.554701   0.000000
 
  0.0000000E+00  0.0000000E+00  0.2708333E+00  0.4000000E-01
    1      -20.472305   1.000000
    2      -20.472305   1.000000
    3      -20.309770   1.000000
    4      -20.309770   1.000000
    5      -17.535273   1.000000
    6      -17.535273   1.000000
    7      -17.467993   1.000000
    8      -17.467993   1.000000
    9      -17.323744   1.000000
   10      -17.323744   1.000000
   11       -8.577794   1.000000
   12       -8.577794   1.000000
   13       -7.414674   1.000000
   14       -7.414674   1.000000
   15       -2.561217   1.000000
   16       -2.561217   1.000000
   17        0.431168   1.000000
   18        0.431168   1.000000
   19        0.920763   1.000000
   20        0.920763   1.000000
   21        1.161226   1.000000
   22        1.161226   1.000000
   23        2.302734   1.000000
   24        2.302734   1.000000
   25        3.140852   1.000042
   26        3.140852   1.000042
   27        4.265532  -0.001232
   28        4.265532  -0.001232
   29        4.985469  -0.000000
   30        4.985469  -0.000000
   31        5.066623  -0.000000
   32        5.066623  -0.000000
   33        6.055763  -0.000000
   34        6.055764  -0.000000
   35        7.307772  -0.000000
   36        7.307772  -0.000000
   37        7.471962  -0.000000
   38        7.471962  -0.000000
   39       10.210245   0.000000
   40       10.210245   0.000000
   41       10.273196   0.000000
   42       10.273196   0.000000
   43       10.522545   0.000000
   44       10.522545   0.000000
   45       10.809097   0.000000
   46       10.809097   0.000000
   47       11.406216   0.000000
   48       11.406217   0.000000
 
  0.0000000E+00  0.0000000E+00  0.2916667E+00  0.4000000E-01
    1      -20.472301   1.000000
    2      -20.472301   1.000000
    3      -20.309770   1.000000
    4      -20.309770   1.000000
    5      -17.535259   1.000000
    6      -17.535259   1.000000
    7      -17.467997   1.000000
    8      -17.467997   1.000000
    9      -17.323744   1.000000
   10      -17.323744   1.000000
   11       -8.544958   1.000000
   12       -8.544958   1.000000
   13       -7.473705   1.000000
   14       -7.473705   1.000000
   15       -2.451558   1.000000
   16       -2.451558   1.000000
   17        0.291762   1.000000
   18        0.291762   1.000000
   19        0.946588   1.000000
   20        0.946588   1.000000
   21        1.191308   1.000000
   22        1.191308   1.000000
   23        2.234124   1.000000
   24        2.234124   1.000000
   25        3.065237   1.000004
   26        3.065237   1.000004
   27        4.293395  -0.000650
   28        4.293395  -0.000650
   29        5.013512  -0.000000
   30        5.013512  -0.000000
   31        5.163554  -0.000000
   32        5.163554  -0.000000
   33        6.026858  -0.000000
   34        6.026858  -0.000000
   35        7.432537  -0.000000
   36        7.432537  -0.000000
   37        7.606077  -0.000000
   38        7.606077  -0.000000
   39       10.130836   0.000000
   40       10.130836   0.000000
   41       10.167728   0.000000
   42       10.167728   0.000000
   43       10.566220   0.000000
   44       10.566220   0.000000
   45       10.672133   0.000000
   46       10.672133   0.000000
   47       11.268581   0.000000
   48       11.268581   0.000000
 
  0.0000000E+00  0.0000000E+00  0.3125000E+00  0.4000000E-01
    1      -20.472297   1.000000
    2      -20.472297   1.000000
    3      -20.309771   1.000000
    4      -20.309771   1.000000
    5      -17.535247   1.000000
    6      -17.535247   1.000000
    7      -17.468002   1.000000
    8      -17.468002   1.000000
    9      -17.323745   1.000000
   10      -17.323745   1.000000
   11       -8.510034   1.000000
   12       -8.510034   1.000000
   13       -7.533333   1.000000
   14       -7.533333   1.000000
   15       -2.337548   1.000000
   16       -2.337548   1.000000
   17        0.147210   1.000000
   18        0.147210   1.000000
   19        0.980283   1.000000
   20        0.980283   1.000000
   21        1.222102   1.000000
   22        1.222102   1.000000
   23        2.164393   1.000000
   24        2.164393   1.000000
   25        2.992243   1.000000
   26        2.992243   1.000000
   27        4.319446  -0.000343
   28        4.319446  -0.000343
   29        5.032867  -0.000000
   30        5.032867  -0.000000
   31        5.259618  -0.000000
   32        5.259618  -0.000000
   33        6.007068  -0.000000
   34        6.007068  -0.000000
   35        7.560513  -0.000000
   36        7.560513  -0.000000
   37        7.743303  -0.000000
   38        7.743303  -0.000000
   39       10.005978   0.000000
   40       10.005978   0.000000
   41       10.061513   0.000000
   42       10.061513   0.000000
   43       10.519271   0.000000
   44       10.519271   0.000000
   45       10.660138   0.000000
   46       10.660138   0.000000
   47       11.156355   0.000000
   48       11.156355   0.000000
 
  0.0000000E+00  0.0000000E+00  0.3333333E+00  0.4000000E-01
    1      -20.472295   1.000000
    2      -20.472295   1.000000
    3      -20.309772   1.000000
    4      -20.309772   1.000000
    5      -17.535237   1.000000
    6      -17.535237   1.000000
    7      -17.468008   1.000000
    8      -17.468008   1.000000
    9      -17.323746   1.000000
   10      -17.323746   1.000000
   11       -8.473136   1.000000
   12       -8.473136   1.000000
   13       -7.593121   1.000000
   14       -7.593121   1.000000
   15       -2.219584   1.000000
   16       -2.219584   1.000000
   17        0.000551   1.000000
   18        0.000551   1.000000
   19        1.018789   1.000000
   20        1.018789   1.000000
   21        1.253110   1.000000
   22        1.253110   1.000000
   23        2.094332   1.000000
   24        2.094332   1.000000
   25        2.922712   1.000000
   26        2.922712   1.000000
   27        4.344367  -0.000180
   28        4.344367  -0.000180
   29        5.044224  -0.000000
   30        5.044224  -0.000000
   31        5.350912  -0.000000
   32        5.350912  -0.000000
   33        5.997064  -0.000000
   34        5.997064  -0.000000
   35        7.691073  -0.000000
   36        7.691073  -0.000000
   37        7.882953  -0.000000
   38        7.882953  -0.000000
   39        9.886142   0.000000
   40        9.886142   0.000000
   41        9.945520   0.000000
   42        9.945520   0.000000
   43       10.376263   0.000000
   44       10.376263   0.000000
   45       10.701603   0.000000
   46       10.701603   0.000000
   47       11.107766   0.000000
   48       11.107766   0.000000
 
  0.0000000E+00  0.0000000E+00  0.3541667E+00  0.4000000E-01
    1      -20.472294   1.000000
    2      -20.472294   1.000000
    3      -20.309778   1.000000
    4      -20.309778   1.000000
    5      -17.535229   1.000000
    6      -17.535229   1.000000
    7      -17.468016   1.000000
    8      -17.468016   1.000000
    9      -17.323754   1.000000
   10      -17.323754   1.000000
   11       -8.434423   1.000000
   12       -8.434423   1.000000
   13       -7.652629   1.000000
   14       -7.652629   1.000000
   15       -2.098036   1.000000
   16       -2.098036   1.000000
   17       -0.146830   1.000000
   18       -0.146830   1.000000
   19        1.060607   1.000000
   20        1.060607   1.000000
   21        1.283728   1.000000
   22        1.283728   1.000000
   23        2.024703   1.000000
   24        2.024703   1.000000
   25        2.857530   1.000000
   26        2.857530   1.000000
   27        4.368431  -0.000093
   28        4.368431  -0.000093
   29        5.047886  -0.000000
   30        5.047886  -0.000000
   31        5.435094  -0.000000
   32        5.435094  -0.000000
   33        5.996555  -0.000000
   34        5.996555  -0.000000
   35        7.823591  -0.000000
   36        7.823591  -0.000000
   37        8.024314  -0.000000
   38        8.024314  -0.000000
   39        9.766654   0.000000
   40        9.766654   0.000000
   41        9.836873   0.000000
   42        9.836873   0.000000
   43       10.230127   0.000000
   44       10.230127   0.000000
   45       10.659242   0.000000
   46       10.659242   0.000000
   47       11.157192   0.000000
   48       11.157193   0.000000
 
  0.0000000E+00  0.0000000E+00  0.3750000E+00  0.4000000E-01
    1      -20.472304   1.000000
    2      -20.472304   1.000000