       N       E                     dE             d eps       ncg     rms          rms(c)
DAV:   1    -0.289252668398E+01   -0.28925E+01   -0.18367E+02  3568   0.961E+01    0.102E+01
DAV:   2    -0.693043829740E+01   -0.40379E+01   -0.42548E+01  2856   0.338E+01    0.325E+00
DAV:   3    -0.692638047983E+01    0.40578E-02   -0.11866E+00  3120   0.655E+00    0.197E+00
DAV:   4    -0.692145405562E+01    0.49264E-02   -0.16956E-01  2880   0.231E+00    0.533E-01
DAV:   5    -0.693263409752E+01   -0.11180E-01   -0.14746E-02  3064   0.696E-01    0.320E-01
DAV:   6    -0.693492099970E+01   -0.22869E-02   -0.10200E-03  2816   0.170E-01    0.150E-01
DAV:   7    -0.693607641016E+01   -0.11554E-02   -0.85329E-04  2592   0.177E-01    0.313E-02
DAV:   8    -0.693616485387E+01   -0.88444E-04   -0.79097E-05  2768   0.603E-02    0.104E-02
DAV:   9    -0.693617874570E+01   -0.13892E-04   -0.18044E-05  2632   0.217E-02    0.774E-03
DAV:  10    -0.693618017655E+01   -0.14309E-05   -0.20650E-06  2704   0.102E-02    0.420E-03
DAV:  11    -0.693618050151E+01   -0.32496E-06   -0.42118E-07  2056   0.480E-03
   1 F= -.69361805E+01 E0= -.69329357E+01  d E =-.973443E-02  mag=     0.0000    -0.0000     0.0000
