   4   4   1   0
  0.2841110E+02  0.4300141E-09  0.4300141E-09  0.6145861E-09  0.5000000E-15
  1.000000000000000E-004
  CAR 
 Ga2BiAs                                 
     12.70885057    -20.77412637  301      3.19188038      1.00000000
    -20.774  0.0000E+00  0.0000E+00
    -20.663  0.0000E+00  0.0000E+00
    -20.551  0.0000E+00  0.0000E+00
    -20.439  0.0000E+00  0.0000E+00
    -20.328  0.0000E+00  0.0000E+00
    -20.216  0.0000E+00  0.0000E+00
    -20.104  0.0000E+00  0.0000E+00
    -19.993  0.0000E+00  0.0000E+00
    -19.881  0.0000E+00  0.0000E+00
    -19.770  0.0000E+00  0.0000E+00
    -19.658  0.0000E+00  0.0000E+00
    -19.546  0.5400E-15  0.6027E-16
    -19.435  0.2062E-05  0.2301E-06
    -19.323  0.6539E+00  0.7298E-01
    -19.212  0.5427E+02  0.6130E+01
    -19.100  0.3437E+02  0.9966E+01
    -18.988  0.3017E+00  0.1000E+02
    -18.877  0.1028E-05  0.1000E+02
    -18.765  0.0000E+00  0.1000E+02
    -18.654  0.0000E+00  0.1000E+02
    -18.542  0.0000E+00  0.1000E+02
    -18.430  0.0000E+00  0.1000E+02
    -18.319  0.0000E+00  0.1000E+02
    -18.207  0.0000E+00  0.1000E+02
    -18.095  0.0000E+00  0.1000E+02
    -17.984  0.0000E+00  0.1000E+02
    -17.872  0.0000E+00  0.1000E+02
    -17.761  0.0000E+00  0.1000E+02
    -17.649  0.0000E+00  0.1000E+02
    -17.537  0.0000E+00  0.1000E+02
    -17.426  0.0000E+00  0.1000E+02
    -17.314  0.0000E+00  0.1000E+02
    -17.203  0.0000E+00  0.1000E+02
    -17.091  0.0000E+00  0.1000E+02
    -16.979  0.0000E+00  0.1000E+02
    -16.868  0.0000E+00  0.1000E+02
    -16.756  0.0000E+00  0.1000E+02
    -16.645  0.0000E+00  0.1000E+02
    -16.533  0.0000E+00  0.1000E+02
    -16.421  0.0000E+00  0.1000E+02
    -16.310  0.0000E+00  0.1000E+02
    -16.198  0.0000E+00  0.1000E+02
    -16.087  0.0000E+00  0.1000E+02
    -15.975  0.0000E+00  0.1000E+02
    -15.863  0.0000E+00  0.1000E+02
    -15.752  0.0000E+00  0.1000E+02
    -15.640  0.0000E+00  0.1000E+02
    -15.528  0.0000E+00  0.1000E+02
    -15.417  0.0000E+00  0.1000E+02
    -15.305  0.0000E+00  0.1000E+02
    -15.194  0.0000E+00  0.1000E+02
    -15.082  0.0000E+00  0.1000E+02
    -14.970  0.0000E+00  0.1000E+02
    -14.859  0.0000E+00  0.1000E+02
    -14.747  0.0000E+00  0.1000E+02
    -14.636  0.0000E+00  0.1000E+02
    -14.524  0.0000E+00  0.1000E+02
    -14.412  0.0000E+00  0.1000E+02
    -14.301  0.0000E+00  0.1000E+02
    -14.189  0.0000E+00  0.1000E+02
    -14.078  0.0000E+00  0.1000E+02
    -13.966  0.0000E+00  0.1000E+02
    -13.854  0.0000E+00  0.1000E+02
    -13.743  0.0000E+00  0.1000E+02
    -13.631  0.0000E+00  0.1000E+02
    -13.519  0.0000E+00  0.1000E+02
    -13.408  0.0000E+00  0.1000E+02
    -13.296  0.0000E+00  0.1000E+02
    -13.185  0.0000E+00  0.1000E+02
    -13.073  0.0000E+00  0.1000E+02
    -12.961  0.0000E+00  0.1000E+02
    -12.850  0.0000E+00  0.1000E+02
    -12.738  0.0000E+00  0.1000E+02
    -12.627  0.0000E+00  0.1000E+02
    -12.515  0.0000E+00  0.1000E+02
    -12.403  0.0000E+00  0.1000E+02
    -12.292  0.0000E+00  0.1000E+02
    -12.180  0.0000E+00  0.1000E+02
    -12.069  0.0000E+00  0.1000E+02
    -11.957  0.0000E+00  0.1000E+02
    -11.845  0.0000E+00  0.1000E+02
    -11.734  0.0000E+00  0.1000E+02
    -11.622  0.0000E+00  0.1000E+02
    -11.511  0.0000E+00  0.1000E+02
    -11.399  0.0000E+00  0.1000E+02
    -11.287  0.0000E+00  0.1000E+02
    -11.176  0.0000E+00  0.1000E+02
    -11.064  0.0000E+00  0.1000E+02
    -10.952  0.0000E+00  0.1000E+02
    -10.841  0.0000E+00  0.1000E+02
    -10.729  0.0000E+00  0.1000E+02
    -10.618  0.0000E+00  0.1000E+02
    -10.506  0.0000E+00  0.1000E+02
    -10.394  0.0000E+00  0.1000E+02
    -10.283  0.0000E+00  0.1000E+02
    -10.171  0.0000E+00  0.1000E+02
    -10.060  0.0000E+00  0.1000E+02
     -9.948  0.0000E+00  0.1000E+02
     -9.836  0.0000E+00  0.1000E+02
     -9.725  0.0000E+00  0.1000E+02
     -9.613  0.0000E+00  0.1000E+02
     -9.502  0.0000E+00  0.1000E+02
     -9.390  0.8526E-16  0.1000E+02
     -9.278  0.1695E-06  0.1000E+02
     -9.167  0.2688E-01  0.1000E+02
     -9.055  0.1385E+01  0.1016E+02
     -8.943  0.1270E+01  0.1030E+02
     -8.832  0.7949E+00  0.1039E+02
     -8.720  0.6492E+00  0.1046E+02
     -8.609  0.5697E+00  0.1052E+02
     -8.497  0.5645E+00  0.1059E+02
     -8.385  0.1963E+01  0.1081E+02
     -8.274  0.2312E+01  0.1106E+02
     -8.162  0.1587E+01  0.1124E+02
     -8.051  0.1415E+01  0.1140E+02
     -7.939  0.1694E+01  0.1159E+02
     -7.827  0.3922E+01  0.1203E+02
     -7.716  0.2823E+01  0.1234E+02
     -7.604  0.2143E+01  0.1258E+02
     -7.493  0.2211E+01  0.1283E+02
     -7.381  0.3285E+01  0.1319E+02
     -7.269  0.6546E+01  0.1392E+02
     -7.158  0.6781E+00  0.1400E+02
     -7.046  0.3372E-03  0.1400E+02
     -6.934  0.4292E-10  0.1400E+02
     -6.823  0.0000E+00  0.1400E+02
     -6.711  0.0000E+00  0.1400E+02
     -6.600  0.0000E+00  0.1400E+02
     -6.488  0.0000E+00  0.1400E+02
     -6.376  0.0000E+00  0.1400E+02
     -6.265  0.0000E+00  0.1400E+02
     -6.153  0.0000E+00  0.1400E+02
     -6.042  0.0000E+00  0.1400E+02
     -5.930  0.0000E+00  0.1400E+02
     -5.818  0.0000E+00  0.1400E+02
     -5.707  0.0000E+00  0.1400E+02
     -5.595  0.0000E+00  0.1400E+02
     -5.484  0.0000E+00  0.1400E+02
     -5.372  0.0000E+00  0.1400E+02
     -5.260  0.0000E+00  0.1400E+02
     -5.149  0.0000E+00  0.1400E+02
     -5.037  0.0000E+00  0.1400E+02
     -4.926  0.0000E+00  0.1400E+02
     -4.814  0.0000E+00  0.1400E+02
     -4.702  0.0000E+00  0.1400E+02
     -4.591  0.0000E+00  0.1400E+02
     -4.479  0.0000E+00  0.1400E+02
     -4.367  0.0000E+00  0.1400E+02
     -4.256  0.0000E+00  0.1400E+02
     -4.144  0.0000E+00  0.1400E+02
     -4.033  0.0000E+00  0.1400E+02
     -3.921  0.0000E+00  0.1400E+02
     -3.809  0.0000E+00  0.1400E+02
     -3.698  0.4156E-09  0.1400E+02
     -3.586  0.1848E-02  0.1400E+02
     -3.475  0.1305E+01  0.1415E+02
     -3.363  0.4284E+01  0.1462E+02
     -3.251  0.5228E+01  0.1521E+02
     -3.140  0.2158E+01  0.1545E+02
     -3.028  0.1717E+01  0.1564E+02
     -2.917  0.2603E+01  0.1593E+02
     -2.805  0.1296E+01  0.1608E+02
     -2.693  0.1677E+01  0.1626E+02
     -2.582  0.9872E+00  0.1637E+02
     -2.470  0.8766E+00  0.1647E+02
     -2.358  0.1113E+01  0.1659E+02
     -2.247  0.6685E+00  0.1667E+02
     -2.135  0.7310E+00  0.1675E+02
     -2.024  0.4777E+00  0.1680E+02
     -1.912  0.5414E+00  0.1686E+02
     -1.800  0.7057E+00  0.1694E+02
     -1.689  0.5482E+00  0.1700E+02
     -1.577  0.6659E+00  0.1708E+02
     -1.466  0.8370E+00  0.1717E+02
     -1.354  0.1377E+01  0.1733E+02
     -1.242  0.7102E+00  0.1741E+02
     -1.131  0.3122E+00  0.1744E+02
     -1.019  0.6701E-01  0.1745E+02
     -0.908  0.2542E+00  0.1748E+02
     -0.796  0.2188E+00  0.1750E+02
     -0.684  0.1333E+00  0.1752E+02
     -0.573  0.2876E+00  0.1755E+02
     -0.461  0.1901E+00  0.1757E+02
     -0.350  0.1253E+01  0.1771E+02
     -0.238  0.1693E+01  0.1790E+02
     -0.126  0.2303E+01  0.1815E+02
     -0.015  0.2491E+01  0.1843E+02
      0.097  0.2309E+01  0.1869E+02
      0.209  0.2820E+01  0.1900E+02
      0.320  0.2968E+01  0.1934E+02
      0.432  0.3144E+01  0.1969E+02
      0.543  0.2972E+01  0.2002E+02
      0.655  0.5526E+01  0.2064E+02
      0.767  0.3051E+01  0.2098E+02
      0.878  0.2772E+01  0.2129E+02
      0.990  0.4290E+01  0.2176E+02
      1.101  0.4300E+01  0.2224E+02
      1.213  0.2092E+01  0.2248E+02
      1.325  0.2265E+01  0.2273E+02
      1.436  0.2487E+01  0.2301E+02
      1.548  0.1587E+01  0.2318E+02
      1.659  0.1748E+01  0.2338E+02
      1.771  0.2022E+01  0.2361E+02
      1.883  0.2397E+01  0.2387E+02
      1.994  0.2256E+01  0.2413E+02
      2.106  0.1964E+01  0.2434E+02
      2.218  0.2522E+01  0.2463E+02
      2.329  0.1634E+01  0.2481E+02
      2.441  0.1025E+01  0.2492E+02
      2.552  0.1263E+01  0.2506E+02
      2.664  0.1683E+01  0.2525E+02
      2.776  0.1239E+01  0.2539E+02
      2.887  0.8758E+00  0.2549E+02
      2.999  0.1509E+01  0.2566E+02
      3.110  0.1671E+01  0.2584E+02
      3.222  0.2168E+01  0.2608E+02
      3.334  0.1355E+01  0.2624E+02
      3.445  0.8359E+00  0.2633E+02
      3.557  0.6650E+00  0.2640E+02
      3.668  0.4564E+00  0.2645E+02
      3.780  0.7452E+00  0.2654E+02
      3.892  0.6177E+00  0.2661E+02
      4.003  0.1390E+01  0.2676E+02
      4.115  0.1452E+01  0.2692E+02
      4.226  0.2773E+01  0.2723E+02
      4.338  0.3398E+01  0.2761E+02
      4.450  0.3002E+01  0.2795E+02
      4.561  0.2893E+01  0.2827E+02
      4.673  0.2001E+01  0.2849E+02
      4.785  0.2641E+01  0.2879E+02
      4.896  0.3328E+01  0.2916E+02
      5.008  0.1901E+01  0.2937E+02
      5.119  0.1704E+01  0.2956E+02
      5.231  0.1773E+01  0.2976E+02
      5.343  0.2237E+01  0.3001E+02
      5.454  0.2190E+01  0.3025E+02
      5.566  0.2453E+01  0.3053E+02
      5.677  0.1168E+01  0.3066E+02
      5.789  0.1276E+01  0.3080E+02
      5.901  0.2616E+01  0.3109E+02
      6.012  0.1852E+01  0.3130E+02
      6.124  0.1547E+01  0.3147E+02
      6.235  0.2479E+01  0.3175E+02
      6.347  0.3252E+01  0.3211E+02
      6.459  0.2681E+01  0.3241E+02
      6.570  0.1856E+01  0.3262E+02
      6.682  0.3234E+01  0.3298E+02
      6.794  0.2490E+01  0.3326E+02
      6.905  0.2494E+01  0.3354E+02
      7.017  0.2121E+01  0.3377E+02
      7.128  0.2193E+01  0.3402E+02
      7.240  0.2193E+01  0.3426E+02
      7.352  0.3280E+01  0.3463E+02
      7.463  0.2801E+01  0.3494E+02
      7.575  0.3079E+01  0.3528E+02
      7.686  0.3159E+01  0.3564E+02
      7.798  0.2605E+01  0.3593E+02
      7.910  0.2790E+01  0.3624E+02
      8.021  0.2043E+01  0.3647E+02
      8.133  0.2106E+01  0.3670E+02
      8.244  0.1928E+01  0.3692E+02
      8.356  0.2253E+01  0.3717E+02
      8.468  0.2727E+01  0.3747E+02
      8.579  0.2912E+01  0.3780E+02
      8.691  0.1582E+01  0.3797E+02
      8.803  0.8866E+00  0.3807E+02
      8.914  0.1044E+01  0.3819E+02
      9.026  0.1750E+01  0.3838E+02
      9.137  0.1294E+01  0.3853E+02
      9.249  0.1141E+01  0.3866E+02
      9.361  0.1119E+01  0.3878E+02
      9.472  0.1405E+01  0.3894E+02
      9.584  0.1344E+01  0.3909E+02
      9.695  0.9338E+00  0.3919E+02
      9.807  0.1006E+01  0.3930E+02
      9.919  0.5745E+00  0.3937E+02
     10.030  0.7928E+00  0.3946E+02
     10.142  0.3165E+00  0.3949E+02
     10.253  0.1305E+00  0.3951E+02
     10.365  0.4126E+00  0.3955E+02
     10.477  0.3323E+00  0.3959E+02
     10.588  0.1353E+00  0.3961E+02
     10.700  0.4465E+00  0.3966E+02
     10.811  0.3403E+00  0.3969E+02
     10.923  0.5164E+00  0.3975E+02
     11.035  0.6431E+00  0.3982E+02
     11.146  0.7947E+00  0.3991E+02
     11.258  0.7802E+00  0.4000E+02
     11.370  0.1387E-01  0.4000E+02
     11.481  0.6563E-07  0.4000E+02
     11.593  0.0000E+00  0.4000E+02
     11.704  0.0000E+00  0.4000E+02
     11.816  0.0000E+00  0.4000E+02
     11.928  0.0000E+00  0.4000E+02
     12.039  0.0000E+00  0.4000E+02
     12.151  0.0000E+00  0.4000E+02
     12.262  0.0000E+00  0.4000E+02
     12.374  0.0000E+00  0.4000E+02
     12.486  0.0000E+00  0.4000E+02
     12.597  0.0000E+00  0.4000E+02
     12.709  0.0000E+00  0.4000E+02
     12.70885057    -20.77412637  301      3.19188038      1.00000000
    -20.774  0.0000E+00  0.0000E+00  0.0000E+00  0.0000E+00  0.0000E+00  0.0000E+00  0.0000E+00  0.0000E+00  0.0000E+00
    -20.663  0.0000E+00  0.0000E+00  0.0000E+00  0.0000E+00  0.0000E+00  0.0000E+00  0.0000E+00  0.0000E+00  0.0000E+00
    -20.551  0.0000E+00  0.0000E+00  0.0000E+00  0.0000E+00  0.0000E+00  0.0000E+00  0.0000E+00  0.0000E+00  0.0000E+00
    -20.439  0.0000E+00  0.0000E+00  0.0000E+00  0.0000E+00  0.0000E+00  0.0000E+00  0.0000E+00  0.0000E+00  0.0000E+00
    -20.328  0.0000E+00  0.0000E+00  0.0000E+00  0.0000E+00  0.0000E+00  0.0000E+00  0.0000E+00  0.0000E+00  0.0000E+00
    -20.216  0.0000E+00  0.0000E+00  0.0000E+00  0.0000E+00  0.0000E+00  0.0000E+00  0.0000E+00  0.0000E+00  0.0000E+00
    -20.104  0.0000E+00  0.0000E+00  0.0000E+00  0.0000E+00  0.0000E+00  0.0000E+00  0.0000E+00  0.0000E+00  0.0000E+00
    -19.993  0.0000E+00  0.0000E+00  0.0000E+00  0.0000E+00  0.0000E+00  0.0000E+00  0.0000E+00  0.0000E+00  0.0000E+00
    -19.881  0.0000E+00  0.0000E+00  0.0000E+00  0.0000E+00  0.0000E+00  0.0000E+00  0.0000E+00  0.0000E+00  0.0000E+00
    -19.770  0.0000E+00  0.0000E+00  0.0000E+00  0.0000E+00  0.0000E+00  0.0000E+00  0.0000E+00  0.0000E+00  0.0000E+00
    -19.658  0.0000E+00  0.0000E+00  0.0000E+00  0.0000E+00  0.0000E+00  0.0000E+00  0.0000E+00  0.0000E+00  0.0000E+00
    -19.546  0.2090E-18  0.1769E-19  0.9228E-19  0.4412E-20  0.1071E-19  0.3801E-20  0.8139E-22  0.1437E-20  0.3379E-19
    -19.435  0.7645E-09  0.5645E-10  0.3627E-09  0.5388E-09  0.2516E-10  0.1232E-10  0.1242E-10  0.1895E-09  0.1241E-09
    -19.323  0.1999E-03  0.1449E-04  0.1062E-03  0.2357E-03  0.5395E-05  0.3201E-05  0.9654E-05  0.8375E-04  0.3352E-04
    -19.212  0.1401E-01  0.9078E-03  0.8991E-02  0.1895E-01  0.3529E-03  0.2274E-03  0.1243E-02  0.6987E-02  0.2287E-02
    -19.100  0.5565E-02  0.6808E-03  0.4006E-02  0.6381E-02  0.6947E-03  0.2563E-03  0.5226E-03  0.2729E-02  0.8025E-03
    -18.988  0.6200E-05  0.7374E-05  0.4601E-05  0.8859E-05  0.1337E-04  0.3129E-05  0.3870E-06  0.5382E-05  0.7189E-06
    -18.877  0.1650E-11  0.1833E-10  0.1263E-11  0.5596E-11  0.5348E-10  0.7808E-11  0.9989E-13  0.3592E-11  0.1706E-12
    -18.765  0.0000E+00  0.0000E+00  0.0000E+00  0.0000E+00  0.0000E+00  0.0000E+00  0.0000E+00  0.0000E+00  0.0000E+00
    -18.654  0.0000E+00  0.0000E+00  0.0000E+00  0.0000E+00  0.0000E+00  0.0000E+00  0.0000E+00  0.0000E+00  0.0000E+00
    -18.542  0.0000E+00  0.0000E+00  0.0000E+00  0.0000E+00  0.0000E+00  0.0000E+00  0.0000E+00  0.0000E+00  0.0000E+00
    -18.430  0.0000E+00  0.0000E+00  0.0000E+00  0.0000E+00  0.0000E+00  0.0000E+00  0.0000E+00  0.0000E+00  0.0000E+00
    -18.319  0.0000E+00  0.0000E+00  0.0000E+00  0.0000E+00  0.0000E+00  0.0000E+00  0.0000E+00  0.0000E+00  0.0000E+00
    -18.207  0.0000E+00  0.0000E+00  0.0000E+00  0.0000E+00  0.0000E+00  0.0000E+00  0.0000E+00  0.0000E+00  0.0000E+00
    -18.095  0.0000E+00  0.0000E+00  0.0000E+00  0.0000E+00  0.0000E+00  0.0000E+00  0.0000E+00  0.0000E+00  0.0000E+00
    -17.984  0.0000E+00  0.0000E+00  0.0000E+00  0.0000E+00  0.0000E+00  0.0000E+00  0.0000E+00  0.0000E+00  0.0000E+00
    -17.872  0.0000E+00  0.0000E+00  0.0000E+00  0.0000E+00  0.0000E+00  0.0000E+00  0.0000E+00  0.0000E+00  0.0000E+00
    -17.761  0.0000E+00  0.0000E+00  0.0000E+00  0.0000E+00  0.0000E+00  0.0000E+00  0.0000E+00  0.0000E+00  0.0000E+00
    -17.649  0.0000E+00  0.0000E+00  0.0000E+00  0.0000E+00  0.0000E+00  0.0000E+00  0.0000E+00  0.0000E+00  0.0000E+00
    -17.537  0.0000E+00  0.0000E+00  0.0000E+00  0.0000E+00  0.0000E+00  0.0000E+00  0.0000E+00  0.0000E+00  0.0000E+00
    -17.426  0.0000E+00  0.0000E+00  0.0000E+00  0.0000E+00  0.0000E+00  0.0000E+00  0.0000E+00  0.0000E+00  0.0000E+00
    -17.314  0.0000E+00  0.0000E+00  0.0000E+00  0.0000E+00  0.0000E+00  0.0000E+00  0.0000E+00  0.0000E+00  0.0000E+00
    -17.203  0.0000E+00  0.0000E+00  0.0000E+00  0.0000E+00  0.0000E+00  0.0000E+00  0.0000E+00  0.0000E+00  0.0000E+00
    -17.091  0.0000E+00  0.0000E+00  0.0000E+00  0.0000E+00  0.0000E+00  0.0000E+00  0.0000E+00  0.0000E+00  0.0000E+00
    -16.979  0.0000E+00  0.0000E+00  0.0000E+00  0.0000E+00  0.0000E+00  0.0000E+00  0.0000E+00  0.0000E+00  0.0000E+00
    -16.868  0.0000E+00  0.0000E+00  0.0000E+00  0.0000E+00  0.0000E+00  0.0000E+00  0.0000E+00  0.0000E+00  0.0000E+00
    -16.756  0.0000E+00  0.0000E+00  0.0000E+00  0.0000E+00  0.0000E+00  0.0000E+00  0.0000E+00  0.0000E+00  0.0000E+00
    -16.645  0.0000E+00  0.0000E+00  0.0000E+00  0.0000E+00  0.0000E+00  0.0000E+00  0.0000E+00  0.0000E+00  0.0000E+00
    -16.533  0.0000E+00  0.0000E+00  0.0000E+00  0.0000E+00  0.0000E+00  0.0000E+00  0.0000E+00  0.0000E+00  0.0000E+00
    -16.421  0.0000E+00  0.0000E+00  0.0000E+00  0.0000E+00  0.0000E+00  0.0000E+00  0.0000E+00  0.0000E+00  0.0000E+00
    -16.310  0.0000E+00  0.0000E+00  0.0000E+00  0.0000E+00  0.0000E+00  0.0000E+00  0.0000E+00  0.0000E+00  0.0000E+00
    -16.198  0.0000E+00  0.0000E+00  0.0000E+00  0.0000E+00  0.0000E+00  0.0000E+00  0.0000E+00  0.0000E+00  0.0000E+00
    -16.087  0.0000E+00  0.0000E+00  0.0000E+00  0.0000E+00  0.0000E+00  0.0000E+00  0.0000E+00  0.0000E+00  0.0000E+00
    -15.975  0.0000E+00  0.0000E+00  0.0000E+00  0.0000E+00  0.0000E+00  0.0000E+00  0.0000E+00  0.0000E+00  0.0000E+00
    -15.863  0.0000E+00  0.0000E+00  0.0000E+00  0.0000E+00  0.0000E+00  0.0000E+00  0.0000E+00  0.0000E+00  0.0000E+00
    -15.752  0.0000E+00  0.0000E+00  0.0000E+00  0.0000E+00  0.0000E+00  0.0000E+00  0.0000E+00  0.0000E+00  0.0000E+00
    -15.640  0.0000E+00  0.0000E+00  0.0000E+00  0.0000E+00  0.0000E+00  0.0000E+00  0.0000E+00  0.0000E+00  0.0000E+00
    -15.528  0.0000E+00  0.0000E+00  0.0000E+00  0.0000E+00  0.0000E+00  0.0000E+00  0.0000E+00  0.0000E+00  0.0000E+00
    -15.417  0.0000E+00  0.0000E+00  0.0000E+00  0.0000E+00  0.0000E+00  0.0000E+00  0.0000E+00  0.0000E+00  0.0000E+00
    -15.305  0.0000E+00  0.0000E+00  0.0000E+00  0.0000E+00  0.0000E+00  0.0000E+00  0.0000E+00  0.0000E+00  0.0000E+00
    -15.194  0.0000E+00  0.0000E+00  0.0000E+00  0.0000E+00  0.0000E+00  0.0000E+00  0.0000E+00  0.0000E+00  0.0000E+00
    -15.082  0.0000E+00  0.0000E+00  0.0000E+00  0.0000E+00  0.0000E+00  0.0000E+00  0.0000E+00  0.0000E+00  0.0000E+00
    -14.970  0.0000E+00  0.0000E+00  0.0000E+00  0.0000E+00  0.0000E+00  0.0000E+00  0.0000E+00  0.0000E+00  0.0000E+00
    -14.859  0.0000E+00  0.0000E+00  0.0000E+00  0.0000E+00  0.0000E+00  0.0000E+00  0.0000E+00  0.0000E+00  0.0000E+00
    -14.747  0.0000E+00  0.0000E+00  0.0000E+00  0.0000E+00  0.0000E+00  0.0000E+00  0.0000E+00  0.0000E+00  0.0000E+00
    -14.636  0.0000E+00  0.0000E+00  0.0000E+00  0.0000E+00  0.0000E+00  0.0000E+00  0.0000E+00  0.0000E+00  0.0000E+00
    -14.524  0.0000E+00  0.0000E+00  0.0000E+00  0.0000E+00  0.0000E+00  0.0000E+00  0.0000E+00  0.0000E+00  0.0000E+00
    -14.412  0.0000E+00  0.0000E+00  0.0000E+00  0.0000E+00  0.0000E+00  0.0000E+00  0.0000E+00  0.0000E+00  0.0000E+00
    -14.301  0.0000E+00  0.0000E+00  0.0000E+00  0.0000E+00  0.0000E+00  0.0000E+00  0.0000E+00  0.0000E+00  0.0000E+00
    -14.189  0.0000E+00  0.0000E+00  0.0000E+00  0.0000E+00  0.0000E+00  0.0000E+00  0.0000E+00  0.0000E+00  0.0000E+00
    -14.078  0.0000E+00  0.0000E+00  0.0000E+00  0.0000E+00  0.0000E+00  0.0000E+00  0.0000E+00  0.0000E+00  0.0000E+00
    -13.966  0.0000E+00  0.0000E+00  0.0000E+00  0.0000E+00  0.0000E+00  0.0000E+00  0.0000E+00  0.0000E+00  0.0000E+00
    -13.854  0.0000E+00  0.0000E+00  0.0000E+00  0.0000E+00  0.0000E+00  0.0000E+00  0.0000E+00  0.0000E+00  0.0000E+00
    -13.743  0.0000E+00  0.0000E+00  0.0000E+00  0.0000E+00  0.0000E+00  0.0000E+00  0.0000E+00  0.0000E+00  0.0000E+00
    -13.631  0.0000E+00  0.0000E+00  0.0000E+00  0.0000E+00  0.0000E+00  0.0000E+00  0.0000E+00  0.0000E+00  0.0000E+00
    -13.519  0.0000E+00  0.0000E+00  0.0000E+00  0.0000E+00  0.0000E+00  0.0000E+00  0.0000E+00  0.0000E+00  0.0000E+00
    -13.408  0.0000E+00  0.0000E+00  0.0000E+00  0.0000E+00  0.0000E+00  0.0000E+00  0.0000E+00  0.0000E+00  0.0000E+00
    -13.296  0.0000E+00  0.0000E+00  0.0000E+00  0.0000E+00  0.0000E+00  0.0000E+00  0.0000E+00  0.0000E+00  0.0000E+00
    -13.185  0.0000E+00  0.0000E+00  0.0000E+00  0.0000E+00  0.0000E+00  0.0000E+00  0.0000E+00  0.0000E+00  0.0000E+00
    -13.073  0.0000E+00  0.0000E+00  0.0000E+00  0.0000E+00  0.0000E+00  0.0000E+00  0.0000E+00  0.0000E+00  0.0000E+00
    -12.961  0.0000E+00  0.0000E+00  0.0000E+00  0.0000E+00  0.0000E+00  0.0000E+00  0.0000E+00  0.0000E+00  0.0000E+00
    -12.850  0.0000E+00  0.0000E+00  0.0000E+00  0.0000E+00  0.0000E+00  0.0000E+00  0.0000E+00  0.0000E+00  0.0000E+00
    -12.738  0.0000E+00  0.0000E+00  0.0000E+00  0.0000E+00  0.0000E+00  0.0000E+00  0.0000E+00  0.0000E+00  0.0000E+00
    -12.627  0.0000E+00  0.0000E+00  0.0000E+00  0.0000E+00  0.0000E+00  0.0000E+00  0.0000E+00  0.0000E+00  0.0000E+00
    -12.515  0.0000E+00  0.0000E+00  0.0000E+00  0.0000E+00  0.0000E+00  0.0000E+00  0.0000E+00  0.0000E+00  0.0000E+00
    -12.403  0.0000E+00  0.0000E+00  0.0000E+00  0.0000E+00  0.0000E+00  0.0000E+00  0.0000E+00  0.0000E+00  0.0000E+00
    -12.292  0.0000E+00  0.0000E+00  0.0000E+00  0.0000E+00  0.0000E+00  0.0000E+00  0.0000E+00  0.0000E+00  0.0000E+00
    -12.180  0.0000E+00  0.0000E+00  0.0000E+00  0.0000E+00  0.0000E+00  0.0000E+00  0.0000E+00  0.0000E+00  0.0000E+00
    -12.069  0.0000E+00  0.0000E+00  0.0000E+00  0.0000E+00  0.0000E+00  0.0000E+00  0.0000E+00  0.0000E+00  0.0000E+00
    -11.957  0.0000E+00  0.0000E+00  0.0000E+00  0.0000E+00  0.0000E+00  0.0000E+00  0.0000E+00  0.0000E+00  0.0000E+00
    -11.845  0.0000E+00  0.0000E+00  0.0000E+00  0.0000E+00  0.0000E+00  0.0000E+00  0.0000E+00  0.0000E+00  0.0000E+00
    -11.734  0.0000E+00  0.0000E+00  0.0000E+00  0.0000E+00  0.0000E+00  0.0000E+00  0.0000E+00  0.0000E+00  0.0000E+00
    -11.622  0.0000E+00  0.0000E+00  0.0000E+00  0.0000E+00  0.0000E+00  0.0000E+00  0.0000E+00  0.0000E+00  0.0000E+00
    -11.511  0.0000E+00  0.0000E+00  0.0000E+00  0.0000E+00  0.0000E+00  0.0000E+00  0.0000E+00  0.0000E+00  0.0000E+00
    -11.399  0.0000E+00  0.0000E+00  0.0000E+00  0.0000E+00  0.0000E+00  0.0000E+00  0.0000E+00  0.0000E+00  0.0000E+00
    -11.287  0.0000E+00  0.0000E+00  0.0000E+00  0.0000E+00  0.0000E+00  0.0000E+00  0.0000E+00  0.0000E+00  0.0000E+00
    -11.176  0.0000E+00  0.0000E+00  0.0000E+00  0.0000E+00  0.0000E+00  0.0000E+00  0.0000E+00  0.0000E+00  0.0000E+00
    -11.064  0.0000E+00  0.0000E+00  0.0000E+00  0.0000E+00  0.0000E+00  0.0000E+00  0.0000E+00  0.0000E+00  0.0000E+00
    -10.952  0.0000E+00  0.0000E+00  0.0000E+00  0.0000E+00  0.0000E+00  0.0000E+00  0.0000E+00  0.0000E+00  0.0000E+00
    -10.841  0.0000E+00  0.0000E+00  0.0000E+00  0.0000E+00  0.0000E+00  0.0000E+00  0.0000E+00  0.0000E+00  0.0000E+00
    -10.729  0.0000E+00  0.0000E+00  0.0000E+00  0.0000E+00  0.0000E+00  0.0000E+00  0.0000E+00  0.0000E+00  0.0000E+00
    -10.618  0.0000E+00  0.0000E+00  0.0000E+00  0.0000E+00  0.0000E+00  0.0000E+00  0.0000E+00  0.0000E+00  0.0000E+00
    -10.506  0.0000E+00  0.0000E+00  0.0000E+00  0.0000E+00  0.0000E+00  0.0000E+00  0.0000E+00  0.0000E+00  0.0000E+00
    -10.394  0.0000E+00  0.0000E+00  0.0000E+00  0.0000E+00  0.0000E+00  0.0000E+00  0.0000E+00  0.0000E+00  0.0000E+00
    -10.283  0.0000E+00  0.0000E+00  0.0000E+00  0.0000E+00  0.0000E+00  0.0000E+00  0.0000E+00  0.0000E+00  0.0000E+00
    -10.171  0.0000E+00  0.0000E+00  0.0000E+00  0.0000E+00  0.0000E+00  0.0000E+00  0.0000E+00  0.0000E+00  0.0000E+00
    -10.060  0.0000E+00  0.0000E+00  0.0000E+00  0.0000E+00  0.0000E+00  0.0000E+00  0.0000E+00  0.0000E+00  0.0000E+00
     -9.948  0.0000E+00  0.0000E+00  0.0000E+00  0.0000E+00  0.0000E+00  0.0000E+00  0.0000E+00  0.0000E+00  0.0000E+00
     -9.836  0.0000E+00  0.0000E+00  0.0000E+00  0.0000E+00  0.0000E+00  0.0000E+00  0.0000E+00  0.0000E+00  0.0000E+00
     -9.725  0.0000E+00  0.0000E+00  0.0000E+00  0.0000E+00  0.0000E+00  0.0000E+00  0.0000E+00  0.0000E+00  0.0000E+00
     -9.613  0.0000E+00  0.0000E+00  0.0000E+00  0.0000E+00  0.0000E+00  0.0000E+00  0.0000E+00  0.0000E+00  0.0000E+00
     -9.502  0.0000E+00  0.0000E+00  0.0000E+00  0.0000E+00  0.0000E+00  0.0000E+00  0.0000E+00  0.0000E+00  0.0000E+00
     -9.390  0.8341E-17  0.4402E-21  0.2036E-20  0.2986E-29  0.7444E-30  0.5130E-22  0.4691E-22  0.2863E-30  0.2041E-20
     -9.278  0.1657E-07  0.2521E-11  0.5824E-11  0.5756E-12  0.2038E-16  0.2941E-12  0.9552E-13  0.7670E-13  0.4254E-11
     -9.167  0.2626E-02  0.8923E-06  0.1437E-05  0.2046E-06  0.1298E-10  0.1042E-06  0.1583E-07  0.2729E-07  0.7307E-06
     -9.055  0.1347E+00  0.1672E-03  0.2009E-03  0.3835E-04  0.6086E-08  0.1959E-04  0.9979E-06  0.5137E-05  0.5162E-04
     -8.943  0.1207E+00  0.7122E-03  0.7763E-03  0.1629E-03  0.6250E-07  0.8425E-04  0.1917E-05  0.2204E-04  0.1139E-03
     -8.832  0.7227E-01  0.1076E-02  0.1170E-02  0.2456E-03  0.1727E-06  0.1291E-03  0.2680E-05  0.3374E-04  0.1513E-03
     -8.720  0.5636E-01  0.1357E-02  0.1493E-02  0.3131E-03  0.3134E-06  0.1654E-03  0.3655E-05  0.4370E-04  0.1898E-03
     -8.609  0.4697E-01  0.1599E-02  0.1806E-02  0.3630E-03  0.4561E-06  0.1981E-03  0.4670E-05  0.5151E-04  0.2289E-03
     -8.497  0.4315E-01  0.1782E-02  0.2687E-02  0.3996E-03  0.5812E-06  0.2243E-03  0.5571E-05  0.5770E-04  0.3196E-03
     -8.385  0.1375E+00  0.2225E-02  0.1805E-01  0.6048E-03  0.7561E-06  0.2908E-03  0.3219E-04  0.9805E-04  0.2231E-02
     -8.274  0.1648E+00  0.4393E-02  0.2076E-01  0.1095E-02  0.1108E-05  0.6413E-03  0.6334E-04  0.1941E-03  0.3104E-02
     -8.162  0.1021E+00  0.6568E-02  0.1335E-01  0.1415E-02  0.1399E-05  0.1004E-02  0.3578E-04  0.2593E-03  0.1925E-02
     -8.051  0.8217E-01  0.8425E-02  0.1177E-01  0.1561E-02  0.1360E-05  0.1328E-02  0.3033E-04  0.2976E-03  0.1690E-02
     -7.939  0.9271E-01  0.1272E-01  0.1370E-01  0.1933E-02  0.1696E-05  0.2036E-02  0.4163E-04  0.3701E-03  0.2020E-02
     -7.827  0.1676E+00  0.5021E-01  0.2471E-01  0.3649E-02  0.4048E-05  0.7881E-02  0.8456E-04  0.6820E-03  0.3674E-02
     -7.716  0.9293E-01  0.4123E-01  0.1591E-01  0.6401E-02  0.7915E-05  0.6534E-02  0.5586E-04  0.1208E-02  0.2378E-02
     -7.604  0.5886E-01  0.3012E-01  0.1303E-01  0.8886E-02  0.9292E-05  0.4714E-02  0.4760E-04  0.1692E-02  0.1992E-02
     -7.493  0.4346E-01  0.3214E-01  0.1426E-01  0.1221E-01  0.9316E-05  0.5038E-02  0.4951E-04  0.2334E-02  0.2229E-02
     -7.381  0.2950E-01  0.4685E-01  0.3181E-01  0.1845E-01  0.7449E-05  0.7376E-02  0.9032E-04  0.3540E-02  0.5137E-02
     -7.269  0.1233E-01  0.7391E-01  0.7645E-01  0.5121E-01  0.2302E-05  0.1169E-01  0.1938E-03  0.9793E-02  0.1266E-01
     -7.158  0.5822E-03  0.4081E-02  0.2844E-02  0.1216E-01  0.4218E-07  0.6473E-03  0.7437E-05  0.2386E-02  0.4894E-03
     -7.046  0.1431E-06  0.1752E-06  0.1203E-06  0.8368E-05  0.5490E-11  0.2779E-07  0.3568E-09  0.1708E-05  0.2044E-07
     -6.934  0.9259E-14  0.8261E-15  0.1805E-14  0.1090E-11  0.2802E-18  0.1308E-15  0.7216E-17  0.2242E-12  0.2398E-15
     -6.823  0.0000E+00  0.0000E+00  0.0000E+00  0.0000E+00  0.0000E+00  0.0000E+00  0.0000E+00  0.0000E+00  0.0000E+00
     -6.711  0.0000E+00  0.0000E+00  0.0000E+00  0.0000E+00  0.0000E+00  0.0000E+00  0.0000E+00  0.0000E+00  0.0000E+00
     -6.600  0.0000E+00  0.0000E+00  0.0000E+00  0.0000E+00  0.0000E+00  0.0000E+00  0.0000E+00  0.0000E+00  0.0000E+00
     -6.488  0.0000E+00  0.0000E+00  0.0000E+00  0.0000E+00  0.0000E+00  0.0000E+00  0.0000E+00  0.0000E+00  0.0000E+00
     -6.376  0.0000E+00  0.0000E+00  0.0000E+00  0.0000E+00  0.0000E+00  0.0000E+00  0.0000E+00  0.0000E+00  0.0000E+00
     -6.265  0.0000E+00  0.0000E+00  0.0000E+00  0.0000E+00  0.0000E+00  0.0000E+00  0.0000E+00  0.0000E+00  0.0000E+00
     -6.153  0.0000E+00  0.0000E+00  0.0000E+00  0.0000E+00  0.0000E+00  0.0000E+00  0.0000E+00  0.0000E+00  0.0000E+00
     -6.042  0.0000E+00  0.0000E+00  0.0000E+00  0.0000E+00  0.0000E+00  0.0000E+00  0.0000E+00  0.0000E+00  0.0000E+00
     -5.930  0.0000E+00  0.0000E+00  0.0000E+00  0.0000E+00  0.0000E+00  0.0000E+00  0.0000E+00  0.0000E+00  0.0000E+00
     -5.818  0.0000E+00  0.0000E+00  0.0000E+00  0.0000E+00  0.0000E+00  0.0000E+00  0.0000E+00  0.0000E+00  0.0000E+00
     -5.707  0.0000E+00  0.0000E+00  0.0000E+00  0.0000E+00  0.0000E+00  0.0000E+00  0.0000E+00  0.0000E+00  0.0000E+00
     -5.595  0.0000E+00  0.0000E+00  0.0000E+00  0.0000E+00  0.0000E+00  0.0000E+00  0.0000E+00  0.0000E+00  0.0000E+00
     -5.484  0.0000E+00  0.0000E+00  0.0000E+00  0.0000E+00  0.0000E+00  0.0000E+00  0.0000E+00  0.0000E+00  0.0000E+00
     -5.372  0.0000E+00  0.0000E+00  0.0000E+00  0.0000E+00  0.0000E+00  0.0000E+00  0.0000E+00  0.0000E+00  0.0000E+00
     -5.260  0.0000E+00  0.0000E+00  0.0000E+00  0.0000E+00  0.0000E+00  0.0000E+00  0.0000E+00  0.0000E+00  0.0000E+00
     -5.149  0.0000E+00  0.0000E+00  0.0000E+00  0.0000E+00  0.0000E+00  0.0000E+00  0.0000E+00  0.0000E+00  0.0000E+00
     -5.037  0.0000E+00  0.0000E+00  0.0000E+00  0.0000E+00  0.0000E+00  0.0000E+00  0.0000E+00  0.0000E+00  0.0000E+00
     -4.926  0.0000E+00  0.0000E+00  0.0000E+00  0.0000E+00  0.0000E+00  0.0000E+00  0.0000E+00  0.0000E+00  0.0000E+00
     -4.814  0.0000E+00  0.0000E+00  0.0000E+00  0.0000E+00  0.0000E+00  0.0000E+00  0.0000E+00  0.0000E+00  0.0000E+00
     -4.702  0.0000E+00  0.0000E+00  0.0000E+00  0.0000E+00  0.0000E+00  0.0000E+00  0.0000E+00  0.0000E+00  0.0000E+00
     -4.591  0.0000E+00  0.0000E+00  0.0000E+00  0.0000E+00  0.0000E+00  0.0000E+00  0.0000E+00  0.0000E+00  0.0000E+00
     -4.479  0.0000E+00  0.0000E+00  0.0000E+00  0.0000E+00  0.0000E+00  0.0000E+00  0.0000E+00  0.0000E+00  0.0000E+00
     -4.367  0.0000E+00  0.0000E+00  0.0000E+00  0.0000E+00  0.0000E+00  0.0000E+00  0.0000E+00  0.0000E+00  0.0000E+00
     -4.256  0.0000E+00  0.0000E+00  0.0000E+00  0.0000E+00  0.0000E+00  0.0000E+00  0.0000E+00  0.0000E+00  0.0000E+00
     -4.144  0.0000E+00  0.0000E+00  0.0000E+00  0.0000E+00  0.0000E+00  0.0000E+00  0.0000E+00  0.0000E+00  0.0000E+00
     -4.033  0.0000E+00  0.0000E+00  0.0000E+00  0.0000E+00  0.0000E+00  0.0000E+00  0.0000E+00  0.0000E+00  0.0000E+00
     -3.921  0.0000E+00  0.0000E+00  0.0000E+00  0.0000E+00  0.0000E+00  0.0000E+00  0.0000E+00  0.0000E+00  0.0000E+00
     -3.809  0.0000E+00  0.0000E+00  0.0000E+00  0.0000E+00  0.0000E+00  0.0000E+00  0.0000E+00  0.0000E+00  0.0000E+00
     -3.698  0.1146E-09  0.7969E-15  0.1850E-12  0.6186E-15  0.6542E-13  0.1478E-15  0.3727E-12  0.1663E-15  0.1438E-13
     -3.586  0.5111E-03  0.1013E-07  0.7317E-06  0.7852E-08  0.4790E-06  0.2046E-08  0.1480E-05  0.2212E-08  0.7706E-07
     -3.475  0.3628E+00  0.3201E-04  0.4518E-03  0.2360E-04  0.4696E-03  0.6837E-05  0.8956E-03  0.7178E-05  0.6874E-04
     -3.363  0.1260E+01  0.4655E-03  0.8902E-02  0.2928E-03  0.1333E-02  0.9649E-04  0.1971E-02  0.1098E-03  0.3901E-03