    4    4    1    1
  0.2841110E+02  0.4300141E-09  0.4300141E-09  0.6145861E-09  0.5000000E-15
  1.000000000000000E-004
  CAR 
 Ga2BiAs                                 
     26    140     20
 
  0.0000000E+00  0.0000000E+00  0.0000000E+00  0.7142857E-02
    1      -19.240529   1.000000
    2      -19.240529   1.000000
    3      -19.237092   1.000000
    4      -19.228838   1.000000
    5      -19.172535   1.000000
    6       -9.100931   1.000000
    7       -7.348214   1.000000
    8       -3.482285   1.000000
    9        0.553918   1.000000
   10        0.553918   1.000000
   11        1.925082   1.000000
   12        2.991478   1.000000
   13        3.219726   0.215467
   14        3.219727   0.215462
   15        4.204366   0.000000
   16        4.420932   0.000000
   17        6.225708   0.000000
   18        6.225708   0.000000
   19        6.372754   0.000000
   20        8.950132   0.000000
 
  0.0000000E+00  0.2631579E-01  0.0000000E+00  0.7142857E-02
    1      -19.240647   1.000000
    2      -19.240525   1.000000
    3      -19.237060   1.000000
    4      -19.228686   1.000000
    5      -19.172583   1.000000
    6       -9.096855   1.000000
    7       -7.347830   1.000000
    8       -3.480461   1.000000
    9        0.524982   1.000000
   10        0.557772   1.000000
   11        1.875374   1.000000
   12        2.974825   1.000000
   13        3.217602   0.233453
   14        3.247100   0.059161
   15        4.226853   0.000000
   16        4.453815   0.000000
   17        6.222657   0.000000
   18        6.230140   0.000000
   19        6.397920   0.000000
   20        8.982179   0.000000
 
  0.0000000E+00  0.5263158E-01  0.0000000E+00  0.7142857E-02
    1      -19.240979   1.000000
    2      -19.240512   1.000000
    3      -19.236962   1.000000
    4      -19.228234   1.000000
    5      -19.172675   1.000000
    6       -9.084610   1.000000
    7       -7.346780   1.000000
    8       -3.475031   1.000000
    9        0.443490   1.000000
   10        0.569307   1.000000
   11        1.737606   1.000000
   12        2.925411   1.000000
   13        3.211175   0.292621
   14        3.321980   0.000117
   15        4.278356   0.000000
   16        4.558906   0.000000
   17        6.215512   0.000000
   18        6.243453   0.000000
   19        6.472995   0.000000
   20        9.075457   0.000000
 
  0.0000000E+00  0.7894737E-01  0.0000000E+00  0.7142857E-02
    1      -19.241494   1.000000
    2      -19.240491   1.000000
    3      -19.236837   1.000000
    4      -19.227510   1.000000
    5      -19.172840   1.000000
    6       -9.064258   1.000000
    7       -7.345352   1.000000
    8       -3.466110   1.000000
    9        0.322401   1.000000
   10        0.588426   1.000000
   11        1.536579   1.000000
   12        2.844634   1.000000
   13        3.200278   0.406129
   14        3.427162   0.000000
   15        4.340177   0.000000
   16        4.734831   0.000000
   17        6.209140   0.000000
   18        6.265698   0.000000
   19        6.596383   0.000000
   20        9.222290   0.000000
 
  0.0000000E+00  0.1052632E+00  0.0000000E+00  0.7142857E-02
    1      -19.242136   1.000000
    2      -19.240460   1.000000
    3      -19.236709   1.000000
    4      -19.226526   1.000000
    5      -19.173054   1.000000
    6       -9.035911   1.000000
    7       -7.344031   1.000000
    8       -3.453867   1.000000
    9        0.176539   1.000000
   10        0.614968   1.000000
   11        1.296487   1.000000
   12        2.734781   1.000000
   13        3.184669   0.580814
   14        3.543829   0.000000
   15        4.410435   0.000000
   16        4.965218   0.000000
   17        6.209214   0.000000
   18        6.296960   0.000000
   19        6.764098   0.000000
   20        9.412063   0.000000
 
  0.0000000E+00  0.1315789E+00  0.0000000E+00  0.7142857E-02
    1      -19.242863   1.000000
    2      -19.240422   1.000000
    3      -19.236578   1.000000
    4      -19.225322   1.000000
    5      -19.173320   1.000000
    6       -8.999746   1.000000
    7       -7.343489   1.000000
    8       -3.438489   1.000000
    9        0.018596   1.000000
   10        0.648698   1.000000
   11        1.035629   1.000000
   12        2.599086   1.000000
   13        3.164048   0.784425
   14        3.657947   0.000000
   15        4.489651   0.000000
   16        5.236268   0.000000
   17        6.220647   0.000000
   18        6.337356   0.000000
   19        6.968564   0.000000
   20        9.632335   0.000000
 
  0.0000000E+00  0.1578947E+00  0.0000000E+00  0.7142857E-02
    1      -19.243670   1.000000
    2      -19.240369   1.000000
    3      -19.236462   1.000000
    4      -19.223939   1.000000
    5      -19.173630   1.000000
    6       -8.955945   1.000000
    7       -7.344568   1.000000
    8       -3.420117   1.000000
    9       -0.142373   1.000000
   10        0.689303   1.000000
   11        0.767334   1.000000
   12        2.441520   1.000000
   13        3.138116   0.935830
   14        3.762695   0.000000
   15        4.575657   0.000000
   16        5.539066   0.000000
   17        6.247199   0.000000
   18        6.387024   0.000000
   19        7.198342   0.000000
   20        9.865359   0.000000
 
  0.0000000E+00  0.1842105E+00  0.0000000E+00  0.7142857E-02
    1      -19.244529   1.000000
    2      -19.240314   1.000000
    3      -19.236361   1.000000
    4      -19.222415   1.000000
    5      -19.173976   1.000000
    6       -8.904758   1.000000
    7       -7.348265   1.000000
    8       -3.398775   1.000000
    9       -0.301331   1.000000
   10        0.502367   1.000000
   11        0.736373   1.000000
   12        2.266430   1.000000
   13        3.106609   0.992064
   14        3.857084   0.000000
   15        4.665387   0.000000
   16        5.863915   0.000000
   17        6.293231   0.000000
   18        6.446121   0.000000
   19        7.438835   0.000000
   20       10.036941   0.000000
 
  0.0000000E+00  0.2105263E+00  0.0000000E+00  0.7142857E-02
    1      -19.245420   1.000000
    2      -19.240256   1.000000
    3      -19.236268   1.000000
    4      -19.220782   1.000000
    5      -19.174337   1.000000
    6       -8.846508   1.000000
    7       -7.355692   1.000000
    8       -3.374284   1.000000
    9       -0.457829   1.000000
   10        0.251498   1.000000
   11        0.789396   1.000000
   12        2.078179   1.000000
   13        3.069369   0.999735
   14        3.942977   0.000000
   15        4.756493   0.000000
   16        6.181911   0.000000
   17        6.379902   0.000000
   18        6.514814   0.000000
   19        7.673706   0.000000
   20        9.943424   0.000000
 
  0.0000000E+00  0.2368421E+00  0.0000000E+00  0.7142857E-02
    1      -19.246325   1.000000
    2      -19.240189   1.000000
    3      -19.236189   1.000000
    4      -19.219095   1.000000
    5      -19.174724   1.000000
    6       -8.781591   1.000000
    7       -7.368016   1.000000
    8       -3.346169   1.000000
    9       -0.616891   1.000000
   10        0.027756   1.000000
   11        0.847724   1.000000
   12        1.880879   1.000000
   13        3.026421   0.999999
   14        4.022722   0.000000
   15        4.847659   0.000000
   16        6.364475   0.000000
   17        6.593267   0.000000
   18        6.624349   0.000000
   19        7.887713   0.000000
   20        9.740982   0.000000
 
  0.0000000E+00  0.2631579E+00  0.0000000E+00  0.7142857E-02
    1      -19.247223   1.000000
    2      -19.240128   1.000000
    3      -19.236121   1.000000
    4      -19.217392   1.000000
    5      -19.175115   1.000000
    6       -8.710453   1.000000
    7       -7.386404   1.000000
    8       -3.313591   1.000000
    9       -0.787933   1.000000
   10       -0.153798   1.000000
   11        0.910549   1.000000
   12        1.678223   1.000000
   13        2.978038   1.000000
   14        4.098063   0.000000
   15        4.938173   0.000000
   16        6.464549   0.000000
   17        6.681636   0.000000
   18        6.955979   0.000000
   19        8.072426   0.000000
   20        9.546721   0.000000
 
  0.0000000E+00  0.2894737E+00  0.0000000E+00  0.7142857E-02
    1      -19.248092   1.000000
    2      -19.240059   1.000000
    3      -19.236066   1.000000
    4      -19.215718   1.000000
    5      -19.175497   1.000000
    6       -8.633626   1.000000
    7       -7.411930   1.000000
    8       -3.275344   1.000000
    9       -0.977813   1.000000
   10       -0.282461   1.000000
   11        0.976849   1.000000
   12        1.473481   1.000000
   13        2.924817   1.000000
   14        4.169874   0.000000
   15        5.027424   0.000000
   16        6.565153   0.000000
   17        6.780048   0.000000
   18        7.263134   0.000000
   19        8.234143   0.000000
   20        9.384172   0.000000
 
  0.0000000E+00  0.3157895E+00  0.0000000E+00  0.7142857E-02
    1      -19.248912   1.000000
    2      -19.239999   1.000000
    3      -19.236020   1.000000
    4      -19.214112   1.000000
    5      -19.175869   1.000000
    6       -8.551746   1.000000
    7       -7.445471   1.000000
    8       -3.229923   1.000000
    9       -1.183718   1.000000
   10       -0.358631   1.000000
   11        1.045337   1.000000
   12        1.269480   1.000000
   13        2.867770   1.000000
   14        4.238199   0.000000
   15        5.114529   0.000000
   16        6.674371   0.000000
   17        6.888591   0.000000
   18        7.497256   0.000000
   19        8.391892   0.000000
   20        9.233191   0.000000
 
  0.0000000E+00  0.3421053E+00  0.0000000E+00  0.7142857E-02
    1      -19.249669   1.000000
    2      -19.239941   1.000000
    3      -19.235983   1.000000
    4      -19.212624   1.000000
    5      -19.176216   1.000000
    6       -8.465550   1.000000
    7       -7.487628   1.000000
    8       -3.175673   1.000000
    9       -1.396679   1.000000
   10       -0.389963   1.000000
   11        1.068689   1.000000
   12        1.114369   1.000000
   13        2.808403   1.000000
   14        4.302399   0.000000
   15        5.198138   0.000000
   16        6.792313   0.000000
   17        7.007300   0.000000
   18        7.629991   0.000000
   19        8.538421   0.000000
   20        9.066258   0.000000
 
  0.0000000E+00  0.3684211E+00  0.0000000E+00  0.7142857E-02
    1      -19.250342   1.000000
    2      -19.239895   1.000000
    3      -19.235950   1.000000
    4      -19.211300   1.000000
    5      -19.176521   1.000000
    6       -8.375862   1.000000
    7       -7.538657   1.000000
    8       -3.111012   1.000000
    9       -1.608226   1.000000
   10       -0.384390   1.000000
   11        0.873298   1.000000
   12        1.181836   1.000000
   13        2.748803   1.000000
   14        4.361278   0.000000
   15        5.276338   0.000000
   16        6.917343   0.000000
   17        7.136149   0.000000
   18        7.676282   0.000000
   19        8.606495   0.000000
   20        8.924489   0.000000
 
  0.0000000E+00  0.3947368E+00  0.0000000E+00  0.7142857E-02
    1      -19.250913   1.000000
    2      -19.239852   1.000000
    3      -19.235919   1.000000
    4      -19.210162   1.000000
    5      -19.176785   1.000000
    6       -8.283655   1.000000
    7       -7.598433   1.000000
    8       -3.034764   1.000000
    9       -1.812233   1.000000
   10       -0.347913   1.000000
   11        0.685301   1.000000
   12        1.245049   1.000000
   13        2.691731   1.000000
   14        4.413232   0.000000
   15        5.346649   0.000000
   16        7.046584   0.000000
   17        7.275033   0.000000
   18        7.671400   0.000000
   19        8.574140   0.000000
   20        8.708570   0.000000
 
  0.0000000E+00  0.4210526E+00  0.0000000E+00  0.7142857E-02
    1      -19.251372   1.000000
    2      -19.239818   1.000000
    3      -19.235902   1.000000
    4      -19.209240   1.000000
    5      -19.177006   1.000000
    6       -8.190024   1.000000
    7       -7.666439   1.000000
    8       -2.946688   1.000000
    9       -2.003950   1.000000
   10       -0.285010   1.000000
   11        0.506621   1.000000
   12        1.300664   1.000000
   13        2.640661   1.000000
   14        4.456414   0.000000
   15        5.406135   0.000000
   16        7.175464   0.000000
   17        7.423768   0.000000
   18        7.642168   0.000000
   19        8.499636   0.000000
   20        8.506608   0.000000
 
  0.0000000E+00  0.4473684E+00  0.0000000E+00  0.7142857E-02
    1      -19.251718   1.000000
    2      -19.239795   1.000000
    3      -19.235893   1.000000
    4      -19.208567   1.000000
    5      -19.177164   1.000000
    6       -8.096228   1.000000
    7       -7.741762   1.000000
    8       -2.848869   1.000000
    9       -2.177921   1.000000
   10       -0.199416   1.000000
   11        0.339359   1.000000
   12        1.344780   1.000000
   13        2.599647   1.000000
   14        4.488957   0.000000
   15        5.451671   0.000000
   16        7.296881   0.000000
   17        7.582074   0.000000
   18        7.602907   0.000000
   19        8.302726   0.000000
   20        8.442359   0.000000
 
  0.0000000E+00  0.4736842E+00  0.0000000E+00  0.7142857E-02
    1      -19.251938   1.000000
    2      -19.239784   1.000000
    3      -19.235888   1.000000
    4      -19.208160   1.000000
    5      -19.177262   1.000000
    6       -8.003926   1.000000
    7       -7.822915   1.000000
    8       -2.751548   1.000000
    9       -2.321743   1.000000
   10       -0.095698   1.000000
   11        0.187029   1.000000
   12        1.373399   1.000000
   13        2.572821   1.000000
   14        4.509232   0.000000
   15        5.480378   0.000000
   16        7.400369   0.000000
   17        7.558313   0.000000
   18        7.749547   0.000000
   19        8.110131   0.000000
   20        8.405240   0.000000
 
  0.0000000E+00  0.5000000E+00  0.0000000E+00  0.7142857E-02
    1      -19.252004   1.000000
    2      -19.239776   1.000000
    3      -19.235880   1.000000
    4      -19.208014   1.000000
    5      -19.177295   1.000000
    6       -7.928525   1.000000
    7       -7.894587   1.000000
    8       -2.699273   1.000000
    9       -2.389645   1.000000
   10       -0.008261   1.000000
   11        0.083453   1.000000
   12        1.383348   1.000000
   13        2.563457   1.000000
   14        4.516124   0.000000
   15        5.490200   0.000000
   16        7.458976   0.000000
   17        7.521901   0.000000
   18        7.920690   0.000000
   19        7.930935   0.000000
   20        8.385686   0.000000
 
  0.0000000E+00  0.5000000E+00  0.0000000E+00  0.7142857E-02
    1      -19.252004   1.000000
    2      -19.239776   1.000000
    3      -19.235880   1.000000
    4      -19.208014   1.000000
    5      -19.177295   1.000000
    6       -7.928525   1.000000
    7       -7.894587   1.000000
    8       -2.699273   1.000000
    9       -2.389645   1.000000
   10       -0.008261   1.000000
   11        0.083453   1.000000
   12        1.383348   1.000000
   13        2.563457   1.000000
   14        4.516124   0.000000
   15        5.490200   0.000000
   16        7.458976   0.000000
   17        7.521901   0.000000
   18        7.920696   0.000000
   19        7.930938   0.000000
   20        8.384095   0.000000
 
  0.2631579E-01  0.5000000E+00  0.0000000E+00  0.7142857E-02
    1      -19.251995   1.000000
    2      -19.239891   1.000000
    3      -19.235776   1.000000
    4      -19.207923   1.000000
    5      -19.177329   1.000000
    6       -7.925075   1.000000
    7       -7.891489   1.000000
    8       -2.701808   1.000000
    9       -2.394196   1.000000
   10       -0.004175   1.000000
   11        0.086443   1.000000
   12        1.359627   1.000000
   13        2.526471   1.000000
   14        4.553912   0.000000
   15        5.530760   0.000000
   16        7.341456   0.000000
   17        7.455247   0.000000
   18        7.836064   0.000000
   19        8.022472   0.000000
   20        8.499559   0.000000
 
  0.5263158E-01  0.5000000E+00  0.0000000E+00  0.7142857E-02
    1      -19.251976   1.000000
    2      -19.240221   1.000000
    3      -19.235490   1.000000
    4      -19.207649   1.000000
    5      -19.177434   1.000000
    6       -7.914778   1.000000
    7       -7.882236   1.000000
    8       -2.709526   1.000000
    9       -2.407985   1.000000
   10        0.008032   1.000000
   11        0.095326   1.000000
   12        1.293045   1.000000
   13        2.423411   1.000000
   14        4.661540   0.000000
   15        5.639949   0.000000
   16        7.120604   0.000000
   17        7.263096   0.000000
   18        7.717345   0.000000
   19        8.140212   0.000000
   20        8.479379   0.000000
 
  0.7894737E-01  0.5000000E+00  0.0000000E+00  0.7142857E-02
    1      -19.251946   1.000000
    2      -19.240724   1.000000
    3      -19.235080   1.000000
    4      -19.207202   1.000000
    5      -19.177606   1.000000
    6       -7.897765   1.000000
    7       -7.866956   1.000000
    8       -2.722751   1.000000
    9       -2.431387   1.000000
   10        0.028205   1.000000
   11        0.109842   1.000000
   12        1.195080   1.000000
   13        2.272887   1.000000
   14        4.823405   0.000000
   15        5.783373   0.000000
   16        6.884267   0.000000
   17        7.003702   0.000000
   18        7.641789   0.000000
   19        8.065615   0.000000
   20        8.628865   0.000000
 
  0.1052632E+00  0.5000000E+00  0.0000000E+00  0.7142857E-02
    1      -19.251900   1.000000
    2      -19.241332   1.000000
    3      -19.234588   1.000000
    4      -19.206585   1.000000
    5      -19.177845   1.000000
    6       -7.874269   1.000000
    7       -7.845865   1.000000
    8       -2.741984   1.000000
    9       -2.464927   1.000000
   10        0.056083   1.000000
   11        0.129532   1.000000
   12        1.079562   1.000000
   13        2.095094   1.000000
   14        5.016164   0.000000
   15        5.909126   0.000000
   16        6.656891   0.000000
   17        6.728600   0.000000
   18        7.622837   0.000000
   19        7.894794   0.000000
   20        8.853664   0.000000
 
  0.1315789E+00  0.5000000E+00  0.0000000E+00  0.7142857E-02
    1      -19.251848   1.000000
    2      -19.242043   1.000000
    3      -19.234050   1.000000
    4      -19.205795   1.000000
    5      -19.178143   1.000000
    6       -7.844623   1.000000
    7       -7.819273   1.000000
    8       -2.767828   1.000000
    9       -2.509128   1.000000
   10        0.091272   1.000000
   11        0.153695   1.000000
   12        0.959221   1.000000
   13        1.906673   1.000000
   14        5.206427   0.000000
   15        5.956067   0.000000
   16        6.456189   0.000000
   17        6.463660   0.000000
   18        7.698008   0.000000
   19        7.713114   0.000000
   20        9.088909   0.000000
 
  0.1578947E+00  0.5000000E+00  0.0000000E+00  0.7142857E-02
    1      -19.251782   1.000000
    2      -19.242825   1.000000
    3      -19.233486   1.000000
    4      -19.204853   1.000000
    5      -19.178486   1.000000
    6       -7.809276   1.000000
    7       -7.787598   1.000000
    8       -2.800885   1.000000
    9       -2.564310   1.000000
   10        0.133246   1.000000
   11        0.181319   1.000000
   12        0.844322   1.000000
   13        1.719869   1.000000
   14        5.343455   0.000000
   15        5.882651   0.000000
   16        6.228946   0.000000
   17        6.305534   0.000000
   18        7.563796   0.000000
   19        7.890162   0.000000
   20        9.320204   0.000000
 
  0.1842105E+00  0.5000000E+00  0.0000000E+00  0.7142857E-02
    1      -19.251716   1.000000
    2      -19.243659   1.000000
    3      -19.232923   1.000000
    4      -19.203769   1.000000
    5      -19.178863   1.000000
    6       -7.768793   1.000000
    7       -7.751366   1.000000
    8       -2.841628   1.000000
    9       -2.630370   1.000000
   10        0.181302   1.000000
   11        0.210965   1.000000
   12        0.742606   1.000000
   13        1.543279   1.000000
   14        5.371234   0.000000
   15        5.704153   0.000000
   16        6.026641   0.000000
   17        6.217063   0.000000
   18        7.495956   0.000000
   19        8.183368   0.000000
   20        9.542800   0.000000
 
  0.2105263E+00  0.5000000E+00  0.0000000E+00  0.7142857E-02
    1      -19.251644   1.000000
    2      -19.244534   1.000000
    3      -19.232380   1.000000
    4      -19.202594   1.000000
    5      -19.179279   1.000000
    6       -7.723880   1.000000
    7       -7.711225   1.000000
    8       -2.890232   1.000000
    9       -2.706574   1.000000
   10        0.234525   1.000000
   11        0.240615   1.000000
   12        0.659704   1.000000
   13        1.382791   1.000000
   14        5.289679   0.000000
   15        5.478470   0.000000
   16        5.831925   0.000000
   17        6.143148   0.000000
   18        7.559747   0.000000
   19        8.546001   0.000000
   20        9.754536   0.000000
 
  0.2368421E+00  0.5000000E+00  0.0000000E+00  0.7142857E-02
    1      -19.251568   1.000000
    2      -19.245426   1.000000
    3      -19.231868   1.000000
    4      -19.201324   1.000000
    5      -19.179718   1.000000
    6       -7.675400   1.000000
    7       -7.667966   1.000000
    8       -2.946418   1.000000
    9       -2.791464   1.000000
   10        0.267623   1.000000
   11        0.291731   1.000000
   12        0.599567   1.000000
   13        1.242264   1.000000
   14        5.150941   0.000000
   15        5.244503   0.000000
   16        5.632467   0.000000
   17        6.026271   0.000000
   18        7.762070   0.000000
   19        8.952483   0.000000
   20        9.954455   0.000000
 
  0.2631579E+00  0.5000000E+00  0.0000000E+00  0.7142857E-02
    1      -19.251481   1.000000
    2      -19.246311   1.000000
    3      -19.231388   1.000000
    4      -19.199997   1.000000
    5      -19.180156   1.000000
    6       -7.624382   1.000000
    7       -7.622523   1.000000
    8       -3.009299   1.000000
    9       -2.882833   1.000000
   10        0.289314   1.000000
   11        0.351396   1.000000
   12        0.564249   1.000000
   13        1.123996   1.000000
   14        4.995043   0.000000
   15        5.017665   0.000000
   16        5.430477   0.000000
   17        5.866484   0.000000
   18        8.063976   0.000000
   19        9.385012   0.000000
   20       10.142299   0.000000
 
  0.2894737E+00  0.5000000E+00  0.0000000E+00  0.7142857E-02
    1      -19.251403   1.000000
    2      -19.247163   1.000000
    3      -19.230954   1.000000
    4      -19.198661   1.000000
    5      -19.180580   1.000000
    6       -7.575995   1.000000
    7       -7.572040   1.000000
    8       -3.077324   1.000000
    9       -2.977851   1.000000
   10        0.304846   1.000000
   11        0.411533   1.000000
   12        0.552431   1.000000
   13        1.029056   1.000000
   14        4.804692   0.000000
   15        4.841483   0.000000
   16        5.231197   0.000000
   17        5.685179   0.000000
   18        8.425342   0.000000
   19        9.828638   0.000000
   20       10.317925   0.000000
 
  0.3157895E+00  0.5000000E+00  0.0000000E+00  0.7142857E-02
    1      -19.251335   1.000000
    2      -19.247976   1.000000
    3      -19.230575   1.000000
    4      -19.197364   1.000000
    5      -19.180994   1.000000
    6       -7.529636   1.000000
    7       -7.519771   1.000000
    8       -3.148277   1.000000
    9       -3.073239   1.000000
   10        0.316728   1.000000
   11        0.469580   1.000000
   12        0.558322   1.000000
   13        0.957612   1.000000
   14        4.609553   0.000000
   15        4.699922   0.000000
   16        5.039643   0.000000
   17        5.498733   0.000000
   18        8.820340   0.000000
   19       10.263069   0.000000
   20       10.481124   0.000000
 
  0.3421053E+00  0.5000000E+00  0.0000000E+00  0.7142857E-02
    1      -19.251264   1.000000
    2      -19.248728   1.000000
    3      -19.230247   1.000000
    4      -19.196140   1.000000
    5      -19.181371   1.000000
    6       -7.484848   1.000000
    7       -7.469156   1.000000
    8       -3.219374   1.000000
    9       -3.165480   1.000000
   10        0.328863   1.000000
   11        0.522333   1.000000
   12        0.574002   1.000000
   13        0.909195   1.000000
   14        4.435222   0.000000
   15        4.575860   0.000000
   16        4.860318   0.000000
   17        5.317366   0.000000
   18        9.232389   0.000000
   19       10.631326   0.000000
   20       10.642817   0.000000
 
  0.3684211E+00  0.5000000E+00  0.0000000E+00  0.7142857E-02
    1      -19.251203   1.000000
    2      -19.249405   1.000000
    3      -19.229974   1.000000
    4      -19.195021   1.000000
    5      -19.181714   1.000000
    6       -7.443148   1.000000
    7       -7.421929   1.000000
    8       -3.287444   1.000000
    9       -3.251033   1.000000
   10        0.343516   1.000000
   11        0.566268   1.000000
   12        0.592808   1.000000
   13        0.882623   1.000000
   14        4.284203   0.000000
   15        4.472701   0.000000
   16        4.697443   0.000000
   17        5.147975   0.000000
   18        9.648309   0.000000
   19       10.767220   0.000000
   20       10.882240   0.000000
 
  0.3947368E+00  0.5000000E+00  0.0000000E+00  0.7142857E-02
    1      -19.251149   1.000000
    2      -19.249983   1.000000
    3      -19.229749   1.000000
    4      -19.194047   1.000000
    5      -19.182000   1.000000
    6       -7.406112   1.000000
    7       -7.379910   1.000000
    8       -3.349133   1.000000
    9       -3.326503   1.000000
   10        0.360612   1.000000
   11        0.598818   1.000000
   12        0.610404   1.000000
   13        0.875111   1.000000
   14        4.158614   0.000000
   15        4.392357   0.000000
   16        4.555217   0.000000
   17        4.996067   0.000000
   18       10.054000   0.000000
   19       10.887391   0.000000
   20       11.010338   0.000000
 
  0.4210526E+00  0.5000000E+00  0.0000000E+00  0.7142857E-02
    1      -19.251107   1.000000
    2      -19.250454   1.000000
    3      -19.229567   1.000000
    4      -19.193254   1.000000
    5      -19.182234   1.000000
    6       -7.375293   1.000000
    7       -7.344872   1.000000
    8       -3.401195   1.000000
    9       -3.388811   1.000000
   10        0.378397   1.000000
   11        0.620083   1.000000
   12        0.624441   1.000000
   13        0.880976   1.000000
   14        4.060078   0.000000
   15        4.335171   0.000000
   16        4.437923   0.000000
   17        4.866923   0.000000
   18       10.429925   0.000000
   19       10.990000   0.000000
   20       11.091029   0.000000
 
  0.4473684E+00  0.5000000E+00  0.0000000E+00  0.7142857E-02
    1      -19.251073   1.000000
    2      -19.250786   1.000000
    3      -19.229445   1.000000
    4      -19.192674   1.000000
    5      -19.182404   1.000000
    6       -7.352101   1.000000
    7       -7.318464   1.000000
    8       -3.440724   1.000000
    9       -3.435343   1.000000
   10        0.394227   1.000000
   11        0.632592   1.000000
   12        0.634050   1.000000
   13        0.892379   1.000000
   14        3.989571   0.000000
   15        4.299519   0.000000
   16        4.349869   0.000000
   17        4.766439   0.000000
   18       10.744299   0.000000
   19       11.075277   0.000000
   20       11.144761   0.000000
 
  0.4736842E+00  0.5000000E+00  0.0000000E+00  0.7142857E-02
    1      -19.251052   1.000000
    2      -19.250977   1.000000
    3      -19.229373   1.000000
    4      -19.192313   1.000000
    5      -19.182512   1.000000
    6       -7.337684   1.000000
    7       -7.302024   1.000000
    8       -3.465425   1.000000
    9       -3.464100   1.000000
   10        0.405257   1.000000
   11        0.639076   1.000000
   12        0.639404   1.000000
   13        0.902204   1.000000
   14        3.947384   0.000000
   15        4.281560   0.000000
   16        4.295040   0.000000
   17        4.701496   0.000000
   18       10.946672   0.000000
   19       11.148264   0.000000
   20       11.176391   0.000000
 
  0.5000000E+00  0.5000000E+00  0.0000000E+00  0.7142857E-02
    1      -19.251051   1.000000
    2      -19.251051   1.000000
    3      -19.229361   1.000000
    4      -19.192191   1.000000
    5      -19.182548   1.000000
    6       -7.332794   1.000000
    7       -7.296444   1.000000
    8       -3.473832   1.000000
    9       -3.473832   1.000000
   10        0.409222   1.000000
   11        0.641084   1.000000
   12        0.641084   1.000000
   13        0.905969   1.000000
   14        3.933367   0.000000
   15        4.276391   0.000000
   16        4.276391   0.000000
   17        4.678828   0.000000
   18       11.008106   0.000000
   19       11.186892   0.000000
   20       11.186897   0.000000
 
  0.5000000E+00  0.5000000E+00  0.0000000E+00  0.7142857E-02
    1      -19.251051   1.000000
    2      -19.251051   1.000000
    3      -19.229361   1.000000
    4      -19.192191   1.000000
    5      -19.182548   1.000000
    6       -7.332794   1.000000
    7       -7.296444   1.000000
    8       -3.473832   1.000000
    9       -3.473832   1.000000
   10        0.409222   1.000000
   11        0.641084   1.000000
   12        0.641084   1.000000
   13        0.905969   1.000000
   14        3.933367   0.000000
   15        4.276391   0.000000
   16        4.276391   0.000000
   17        4.678828   0.000000
   18       11.008106   0.000000
   19       11.186892   0.000000
   20       11.186897   0.000000
 
  0.4736842E+00  0.4736842E+00  0.0000000E+00  0.7142857E-02
    1      -19.250990   1.000000
    2      -19.250980   1.000000
    3      -19.229399   1.000000