       N       E                     dE             d eps       ncg     rms          rms(c)
DAV:   1    -0.963276206550E+01   -0.96328E+01   -0.27898E+02  8264   0.105E+02    0.783E+00
DAV:   2    -0.131394274842E+02   -0.35067E+01   -0.36481E+01  6484   0.326E+01    0.250E+00
DAV:   3    -0.131750234609E+02   -0.35596E-01   -0.90159E-01  7780   0.641E+00    0.142E+00
DAV:   4    -0.131635713425E+02    0.11452E-01   -0.61633E-02  7632   0.189E+00    0.285E-01
DAV:   5    -0.131654920668E+02   -0.19207E-02   -0.37272E-03  6768   0.371E-01    0.115E-01
DAV:   6    -0.131663214905E+02   -0.82942E-03   -0.11279E-03  6484   0.204E-01    0.272E-02
DAV:   7    -0.131664268151E+02   -0.10532E-03   -0.91571E-05  6924   0.522E-02    0.136E-02
DAV:   8    -0.131664625733E+02   -0.35758E-04   -0.49795E-05  6368   0.312E-02    0.437E-03
DAV:   9    -0.131664653294E+02   -0.27562E-05   -0.59070E-06  5392   0.130E-02
   1 F= -.13166465E+02 E0= -.13164793E+02  d E =-.334401E-02
