 vasp.5.4.4.18Apr17-6-g9f103f2a35 (build Dec 27 2023 19:01:38) complex          
  
 executed on             LinuxIFC date 2024.08.31  20:10:05
 running on   32 total cores
 distrk:  each k-point on   32 cores,    1 groups
 distr:  one band on NCORES_PER_BAND=   8 cores,    4 groups


--------------------------------------------------------------------------------------------------------


 INCAR:
 POTCAR:    PAW_PBE Ga 08Apr2002                  
 POTCAR:    PAW_PBE Bi_d 06Sep2000                
 POTCAR:    PAW_PBE As 22Sep2009                  
 POTCAR:    PAW_PBE Ga 08Apr2002                  
   VRHFIN =Ga: s2p1                                                             
   LEXCH  = PE                                                                  
   EATOM  =    58.8688 eV,    4.3267 Ry                                         
                                                                                
   TITEL  = PAW_PBE Ga 08Apr2002                                                
   LULTRA =        F    use ultrasoft PP ?                                      
   IUNSCR =        1    unscreen: 0-lin 1-nonlin 2-no                           
   RPACOR =    2.170    partial core radius                                     
   POMASS =   69.723; ZVAL   =    3.000    mass and valenz                      
   RCORE  =    2.600    outmost cutoff radius                                   
   RWIGS  =    2.650; RWIGS  =    1.402    wigner-seitz radius (au A)           
   ENMAX  =  134.678; ENMIN  =  101.009 eV                                      
   ICORE  =        3    local potential                                         
   LCOR   =        T    correct aug charges                                     
   LPAW   =        T    paw PP                                                  
   EAUG   =  320.264                                                            
   DEXC   =    0.000                                                            
   RMAX   =    2.658    core radius for proj-oper                               
   RAUG   =    1.300    factor for augmentation sphere                          
   RDEP   =    2.684    radius for radial grids                                 
   RDEPT  =    2.308    core radius for aug-charge                              
                                                                                
   Atomic configuration                                                         
   10 entries                                                                   
     n  l   j            E        occ.                                          
     1  0  0.50    -10228.7830   2.0000                                         
     2  0  0.50     -1262.1604   2.0000                                         
     2  1  1.50     -1098.6333   6.0000                                         
     3  0  0.50      -148.1110   2.0000                                         
     3  1  1.50       -98.8436   6.0000                                         
     3  2  2.50       -19.1549  10.0000                                         
     4  0  0.50        -8.9483   2.0000                                         
     4  1  0.50        -2.5791   1.0000                                         
     4  2  1.50         5.4423   0.0000                                         
     4  3  2.50        -2.7416   0.0000                                         
   Description                                                                  
     l       E           TYP  RCUT    TYP  RCUT                                 
     0     -8.9483097     23  2.600                                             
     0     -5.8232215     23  2.600                                             
     1     -2.5790793     23  2.600                                             
     1      5.2230115     23  2.600                                             
     2      1.3605826     23  2.600                                             
     3     -1.3605826      7  2.600                                             
  local pseudopotential read in
  partial core-charges read in
  partial kinetic energy density read in
  atomic valenz-charges read in
  non local Contribution for L=           0  read in
    real space projection operators read in
  non local Contribution for L=           0  read in
    real space projection operators read in
  non local Contribution for L=           1  read in
    real space projection operators read in
  non local Contribution for L=           1  read in
    real space projection operators read in
  non local Contribution for L=           2  read in
    real space projection operators read in
    PAW grid and wavefunctions read in
 
   number of l-projection  operators is LMAX  =           5
   number of lm-projection operators is LMMAX =          13
 
 POTCAR:    PAW_PBE Bi_d 06Sep2000                
   VRHFIN =Bi:                                                                  
   LEXCH  = PE                                                                  
   EATOM  =  1959.2045 eV,  143.9975 Ry                                         
                                                                                
   TITEL  = PAW_PBE Bi_d 06Sep2000                                              
   LULTRA =        F    use ultrasoft PP ?                                      
   IUNSCR =        1    unscreen: 0-lin 1-nonlin 2-no                           
   RPACOR =    2.200    partial core radius                                     
   POMASS =  208.980; ZVAL   =   15.000    mass and valenz                      
   RCORE  =    2.500    outmost cutoff radius                                   
   RWIGS  =    3.090; RWIGS  =    1.635    wigner-seitz radius (au A)           
   ENMAX  =  242.839; ENMIN  =  182.129 eV                                      
   ICORE  =        3    local potential                                         
   LCOR   =        T    correct aug charges                                     
   LPAW   =        T    paw PP                                                  
   EAUG   =  442.899                                                            
   DEXC   =    0.000                                                            
   RMAX   =    2.551    core radius for proj-oper                               
   RAUG   =    1.300    factor for augmentation sphere                          
   RDEP   =    2.650    radius for radial grids                                 
   RDEPT  =    2.039    core radius for aug-charge                              
                                                                                
   Atomic configuration                                                         
   16 entries                                                                   
     n  l   j            E        occ.                                          
     1  0  0.50    -90639.6581   2.0000                                         
     2  0  0.50    -16282.4666   2.0000                                         
     2  1  1.50    -13922.8286   6.0000                                         
     3  0  0.50     -3930.4763   2.0000                                         
     3  1  1.50     -3256.7013   6.0000                                         
     3  2  2.50     -2581.6168  10.0000                                         
     4  0  0.50      -902.2614   2.0000                                         
     4  1  1.50      -681.5915   6.0000                                         
     4  2  2.50      -429.8249  10.0000                                         
     4  3  3.50      -152.6004  14.0000                                         
     5  0  0.50      -157.7156   2.0000                                         
     5  1  1.50       -95.8054   6.0000                                         
     5  2  2.50       -27.0806  10.0000                                         
     6  0  0.50       -14.4732   2.0000                                         
     6  1  1.50        -4.5702   3.0000                                         
     5  3  2.50        -2.7212   0.0000                                         
   Description                                                                  
     l       E           TYP  RCUT    TYP  RCUT                                 
     2    -27.0805982     23  2.500                                             
     2     -1.3605826     23  2.500                                             
     0    -14.4732271     23  2.500                                             
     0      6.8029130     23  2.500                                             
     1     -4.5701651     23  2.500                                             
     1     13.6058260     23  2.500                                             
     3     -1.3605826      7  2.500                                             
  local pseudopotential read in
  partial core-charges read in
  partial kinetic energy density read in
  atomic valenz-charges read in
  non local Contribution for L=           2  read in
    real space projection operators read in
  non local Contribution for L=           2  read in
    real space projection operators read in
  non local Contribution for L=           0  read in
    real space projection operators read in
  non local Contribution for L=           0  read in
    real space projection operators read in
  non local Contribution for L=           1  read in
    real space projection operators read in
  non local Contribution for L=           1  read in
    real space projection operators read in
    PAW grid and wavefunctions read in
 
   number of l-projection  operators is LMAX  =           6
   number of lm-projection operators is LMMAX =          18
 
 POTCAR:    PAW_PBE As 22Sep2009                  
   VRHFIN =As: s2p3                                                             
   LEXCH  = PE                                                                  
   EATOM  =   170.1867 eV,   12.5084 Ry                                         
                                                                                
   TITEL  = PAW_PBE As 22Sep2009                                                
   LULTRA =        F    use ultrasoft PP ?                                      
   IUNSCR =        1    unscreen: 0-lin 1-nonlin 2-no                           
   RPACOR =    1.900    partial core radius                                     
   POMASS =   74.922; ZVAL   =    5.000    mass and valenz                      
   RCORE  =    2.100    outmost cutoff radius                                   
   RWIGS  =    2.300; RWIGS  =    1.217    wigner-seitz radius (au A)           
   ENMAX  =  208.702; ENMIN  =  156.526 eV                                      
   ICORE  =        3    local potential                                         
   LCOR   =        T    correct aug charges                                     
   LPAW   =        T    paw PP                                                  
   EAUG   =  462.758                                                            
   DEXC   =    0.000                                                            
   RMAX   =    2.144    core radius for proj-oper                               
   RAUG   =    1.300    factor for augmentation sphere                          
   RDEP   =    2.140    radius for radial grids                                 
   RDEPT  =    1.956    core radius for aug-charge                              
                                                                                
   Atomic configuration                                                         
   10 entries                                                                   
     n  l   j            E        occ.                                          
     1  0  0.50    -11718.0418   2.0000                                         
     2  0  0.50     -1486.5454   2.0000                                         
     2  1  1.50     -1303.3889   6.0000                                         
     3  0  0.50      -190.2849   2.0000                                         
     3  1  1.50      -133.6555   6.0000                                         
     3  2  2.50       -40.6443  10.0000                                         
     4  0  0.50       -14.4936   2.0000                                         
     4  1  0.50        -5.1947   3.0000                                         
     4  2  1.50        -5.4423   0.0000                                         
     4  3  2.50        -5.4423   0.0000                                         
   Description                                                                  
     l       E           TYP  RCUT    TYP  RCUT                                 
     0    -14.4935570     23  2.100                                             
     0    -11.9212055     23  2.100                                             
     1     -5.1947127     23  2.100                                             
     1     27.2116520     23  2.100                                             
     2     -5.4423304     23  2.100                                             
     3     -1.3605826      7  2.100                                             
  local pseudopotential read in
  partial core-charges read in
  partial kinetic energy density read in
  atomic valenz-charges read in
  non local Contribution for L=           0  read in
    real space projection operators read in
  non local Contribution for L=           0  read in
    real space projection operators read in
  non local Contribution for L=           1  read in
    real space projection operators read in
  non local Contribution for L=           1  read in
    real space projection operators read in
  non local Contribution for L=           2  read in
    real space projection operators read in
    PAW grid and wavefunctions read in
 
   number of l-projection  operators is LMAX  =           5
   number of lm-projection operators is LMMAX =          13
 
  PAW_PBE Ga 08Apr2002                  :
 energy of atom  1       EATOM=  -58.8688
 kinetic energy error for atom=    0.0000 (will be added to EATOM!!)
  PAW_PBE Bi_d 06Sep2000                :
 energy of atom  2       EATOM=-1959.2045
 kinetic energy error for atom=    0.0049 (will be added to EATOM!!)
  PAW_PBE As 22Sep2009                  :
 energy of atom  3       EATOM= -170.1867
 kinetic energy error for atom=    0.0005 (will be added to EATOM!!)
 
 
 POSCAR: Ga2 Bi1 As1                             
  positions in direct lattice
  No initial velocities read in
 exchange correlation table for  LEXCH =        8
   RHO(1)=    0.500       N(1)  =     2000
   RHO(2)=  100.500       N(2)  =     4000
 


--------------------------------------------------------------------------------------------------------


 ion  position               nearest neighbor table
   1  0.500  0.000  0.726-   4 2.56   4 2.56   3 2.73   3 2.73
   2  0.000  0.500  0.274-   4 2.56   4 2.56   3 2.73   3 2.73
   3  0.000  0.000  0.000-   1 2.73   1 2.73   2 2.73   2 2.73
   4  0.500  0.500  0.500-   2 2.56   2 2.56   1 2.56   1 2.56
 
  LATTYP: Found a simple tetragonal cell.
 ALAT       =     4.3001408577
 C/A-ratio  =     1.4292232167
  
  Lattice vectors:
  
 A1 = (   4.3001408577,   0.0000000000,   0.0000000000)
 A2 = (   0.0000000000,   4.3001408577,   0.0000000000)
 A3 = (   0.0000000000,   0.0000000000,   6.1458611488)


Analysis of symmetry for initial positions (statically):
=====================================================================
 Subroutine PRICEL returns:
 Original cell was already a primitive cell.
 

 Routine SETGRP: Setting up the symmetry group for a 
 simple tetragonal supercell.


 Subroutine GETGRP returns: Found  8 space group operations
 (whereof  8 operations were pure point group operations)
 out of a pool of 16 trial point group operations.


The static configuration has the point symmetry D_2d.


Analysis of symmetry for dynamics (positions and initial velocities):
=====================================================================
 Subroutine PRICEL returns:
 Original cell was already a primitive cell.
 

 Routine SETGRP: Setting up the symmetry group for a 
 simple tetragonal supercell.


 Subroutine GETGRP returns: Found  8 space group operations
 (whereof  8 operations were pure point group operations)
 out of a pool of 16 trial point group operations.


The dynamic configuration has the point symmetry D_2d.


 Subroutine INISYM returns: Found  8 space group operations
 (whereof  8 operations are pure point group operations),
 and found     1 'primitive' translations

 
 
 KPOINTS: K-points alon1g high symmetry lines     
  interpolating k-points between supplied coordinates
  k-points in reciprocal lattice
Space group operators:
 irot       det(A)        alpha          n_x          n_y          n_z        tau_x        tau_y        tau_z
    1     1.000000     0.000001     1.000000     0.000000     0.000000     0.000000     0.000000     0.000000
    2    -1.000000    90.000000     0.000000     0.000000    -1.000000     0.000000     0.000000     0.000000
    3     1.000000   180.000000     0.000000     0.000000     1.000000     0.000000     0.000000     0.000000
    4    -1.000000    90.000000     0.000000     0.000000     1.000000     0.000000     0.000000     0.000000
    5    -1.000000   180.000000     0.000000     1.000000     0.000000     0.000000     0.000000     0.000000
    6     1.000000   180.000000     0.707107     0.707107     0.000000     0.000000     0.000000     0.000000
    7    -1.000000   180.000000     1.000000     0.000000     0.000000     0.000000     0.000000     0.000000
    8     1.000000   180.000000     0.707107    -0.707107     0.000000     0.000000     0.000000     0.000000


--------------------------------------------------------------------------------------------------------




 Dimension of arrays:
   k-points           NKPTS =    140   k-points in BZ     NKDIM =    140   number of bands    NBANDS=     20
   number of dos      NEDOS =    301   number of ions     NIONS =      4
   non local maximal  LDIM  =      6   non local SUM 2l+1 LMDIM =     18
   total plane-waves  NPLWV =  49152
   max r-space proj   IRMAX =      1   max aug-charges    IRDMAX=  31281
   dimension x,y,z NGX =    32 NGY =   32 NGZ =   48
   dimension x,y,z NGXF=    64 NGYF=   64 NGZF=   96
   support grid    NGXF=    64 NGYF=   64 NGZF=   96
   ions per type =               2   1   1
   NGX,Y,Z   is equivalent  to a cutoff of  12.37, 12.37, 12.98 a.u.
   NGXF,Y,Z  is equivalent  to a cutoff of  24.74, 24.74, 25.97 a.u.

 SYSTEM =  Ga2BiAs                                 
 POSCAR =  Ga2 Bi1 As1                             

 Startparameter for this run:
   NWRITE =      2    write-flag & timer
   PREC   = accura    normal or accurate (medium, high low for compatibility)
   ISTART =      1    job   : 0-new  1-cont  2-samecut
   ICHARG =      2    charge: 1-file 2-atom 10-const
   ISPIN  =      1    spin polarized calculation?
   LNONCOLLINEAR =      F non collinear calculations
   LSORBIT =      F    spin-orbit coupling
   INIWAV =      1    electr: 0-lowe 1-rand  2-diag
   LASPH  =      F    aspherical Exc in radial PAW
   METAGGA=      F    non-selfconsistent MetaGGA calc.

 Electronic Relaxation 1
   ENCUT  =  500.0 eV  36.75 Ry    6.06 a.u.   7.84  7.84 11.21*2*pi/ulx,y,z
   ENINI  =  500.0     initial cutoff
   ENAUG  =  462.8 eV  augmentation charge cutoff
   NELM   =     60;   NELMIN=  2; NELMDL=  0     # of ELM steps 
   EDIFF  = 0.1E-04   stopping-criterion for ELM
   LREAL  =      F    real-space projection
   NLSPLINE    = F    spline interpolate recip. space projectors
   LCOMPAT=      F    compatible to vasp.4.4
   GGA_COMPAT  = T    GGA compatible to vasp.4.4-vasp.4.6
   LMAXPAW     = -100 max onsite density
   LMAXMIX     =    2 max onsite mixed and CHGCAR
   VOSKOWN=      0    Vosko Wilk Nusair interpolation
   ROPT   =    0.00000   0.00000   0.00000
 Ionic relaxation
   EDIFFG = -.1E-01   stopping-criterion for IOM
   NSW    =      0    number of steps for IOM
   NBLOCK =      1;   KBLOCK =      1    inner block; outer block 
   IBRION =     -1    ionic relax: 0-MD 1-quasi-New 2-CG
   NFREE  =      0    steps in history (QN), initial steepest desc. (CG)
   ISIF   =      2    stress and relaxation
   IWAVPR =     10    prediction:  0-non 1-charg 2-wave 3-comb
   ISYM   =      2    0-nonsym 1-usesym 2-fastsym
   LCORR  =      T    Harris-Foulkes like correction to forces

   POTIM  = 0.5000    time-step for ionic-motion
   TEIN   =    0.0    initial temperature
   TEBEG  =    0.0;   TEEND  =   0.0 temperature during run
   SMASS  =  -3.00    Nose mass-parameter (am)
   estimated Nose-frequenzy (Omega)   =  0.10E-29 period in steps =****** mass=  -0.423E-27a.u.
   SCALEE = 1.0000    scale energy and forces
   NPACO  =    256;   APACO  = 16.0  distance and # of slots for P.C.
   PSTRESS=    0.0 pullay stress

  Mass of Ions in am
   POMASS =  69.72208.98 74.92
  Ionic Valenz
   ZVAL   =   3.00 15.00  5.00
  Atomic Wigner-Seitz radii
   RWIGS  =  -1.00 -1.00 -1.00
  virtual crystal weights 
   VCA    =   1.00  1.00  1.00
   NELECT =      26.0000    total number of electrons
   NUPDOWN=      -1.0000    fix difference up-down

 DOS related values:
   EMIN   =  10.00;   EMAX   =-10.00  energy-range for DOS
   EFERMI =   0.00
   ISMEAR =     0;   SIGMA  =   0.05  broadening in eV -4-tet -1-fermi 0-gaus

 Electronic relaxation 2 (details)
   IALGO  =     38    algorithm
   LDIAG  =      T    sub-space diagonalisation (order eigenvalues)
   LSUBROT=      F    optimize rotation matrix (better conditioning)
   TURBO    =      0    0=normal 1=particle mesh
   IRESTART =      0    0=no restart 2=restart with 2 vectors
   NREBOOT  =      0    no. of reboots
   NMIN     =      0    reboot dimension
   EREF     =   0.00    reference energy to select bands
   IMIX   =      4    mixing-type and parameters
     AMIX     =   0.40;   BMIX     =  1.00
     AMIX_MAG =   1.60;   BMIX_MAG =  1.00
     AMIN     =   0.10
     WC   =   100.;   INIMIX=   1;  MIXPRE=   1;  MAXMIX= -45

 Intra band minimization:
   WEIMIN = 0.0000     energy-eigenvalue tresh-hold
   EBREAK =  0.13E-06  absolut break condition
   DEPER  =   0.30     relativ break condition  

   TIME   =   0.40     timestep for ELM

  volume/ion in A,a.u.               =      28.41       191.73
  Fermi-wavevector in a.u.,A,eV,Ry     =   1.001267  1.892120 13.640326  1.002536
  Thomas-Fermi vector in A             =   2.133678
 
 Write flags
   LWAVE        =      F    write WAVECAR
   LDOWNSAMPLE  =      F    k-point downsampling of WAVECAR
   LCHARG       =      F    write CHGCAR
   LVTOT        =      F    write LOCPOT, total local potential
   LVHAR        =      F    write LOCPOT, Hartree potential only
   LELF         =      F    write electronic localiz. function (ELF)
   LORBIT       =     11    0 simple, 1 ext, 2 COOP (PROOUT), +10 PAW based schemes


 Dipole corrections
   LMONO  =      F    monopole corrections only (constant potential shift)
   LDIPOL =      F    correct potential (dipole corrections)
   IDIPOL =      0    1-x, 2-y, 3-z, 4-all directions 
   EPSILON=  1.0000000 bulk dielectric constant

 Exchange correlation treatment:
   GGA     =    --    GGA type
   LEXCH   =     8    internal setting for exchange type
   VOSKOWN=      0    Vosko Wilk Nusair interpolation
   LHFCALC =     F    Hartree Fock is set to
   LHFONE  =     F    Hartree Fock one center treatment
   AEXX    =    0.0000 exact exchange contribution

 Linear response parameters
   LEPSILON=     F    determine dielectric tensor
   LRPA    =     F    only Hartree local field effects (RPA)
   LNABLA  =     F    use nabla operator in PAW spheres
   LVEL    =     F    velocity operator in full k-point grid
   LINTERFAST=   F  fast interpolation
   KINTER  =     0    interpolate to denser k-point grid
   CSHIFT  =0.1000    complex shift for real part using Kramers Kronig
   OMEGAMAX=  -1.0    maximum frequency
   DEG_THRESHOLD= 0.2000000E-02 threshold for treating states as degnerate
   RTIME   =   -0.100 relaxation time in fs
  (WPLASMAI=    0.000 imaginary part of plasma frequency in eV, 0.658/RTIME)
   DFIELD  = 0.0000000 0.0000000 0.0000000 field for delta impulse in time
 
 Orbital magnetization related:
   ORBITALMAG=     F  switch on orbital magnetization
   LCHIMAG   =     F  perturbation theory with respect to B field
   DQ        =  0.001000  dq finite difference perturbation B field
   LLRAUG    =     F  two centre corrections for induced B field



--------------------------------------------------------------------------------------------------------


 Static calculation
 charge density and potential will be updated during run
 non-spin polarized calculation
 Variant of blocked Davidson
 Davidson routine will perform the subspace rotation
 perform sub-space diagonalisation
    after iterative eigenvector-optimisation
 modified Broyden-mixing scheme, WC =      100.0
 initial mixing is a Kerker type mixing with AMIX =  0.4000 and BMIX =      1.0000
 Hartree-type preconditioning will be used
 using additional bands            7
 reciprocal scheme for non local part
 use partial core corrections
 calculate Harris-corrections to forces 
   (improved forces if not selfconsistent)
 use gradient corrections 
 use of overlap-Matrix (Vanderbilt PP)
 Gauss-broadening in eV      SIGMA  =   0.05


--------------------------------------------------------------------------------------------------------


  energy-cutoff  :      500.00
  volume of cell :      113.64
      direct lattice vectors                 reciprocal lattice vectors
     4.300140858  0.000000000  0.000000000     0.232550522  0.000000000  0.000000000
     0.000000000  4.300140858  0.000000000     0.000000000  0.232550522  0.000000000
     0.000000000  0.000000000  6.145861149     0.000000000  0.000000000  0.162711128

  length of vectors
     4.300140858  4.300140858  6.145861149     0.232550522  0.232550522  0.162711128


 
 old parameters found on file WAVECAR:
  energy-cutoff  :      500.00
  volume of cell :      113.64
      direct lattice vectors                 reciprocal lattice vectors
     4.300140858  0.000000000  0.000000000     0.232550522  0.000000000  0.000000000
     0.000000000  4.300140858  0.000000000     0.000000000  0.232550522  0.000000000
     0.000000000  0.000000000  6.145861149     0.000000000  0.000000000  0.162711128

  length of vectors

 
 k-points in units of 2pi/SCALE and weight: K-points alon1g high symmetry lines     
   0.00000000  0.00000000  0.00000000       0.007
   0.00000000  0.00611975  0.00000000       0.007
   0.00000000  0.01223950  0.00000000       0.007
   0.00000000  0.01835925  0.00000000       0.007
   0.00000000  0.02447900  0.00000000       0.007
   0.00000000  0.03059875  0.00000000       0.007
   0.00000000  0.03671850  0.00000000       0.007
   0.00000000  0.04283825  0.00000000       0.007
   0.00000000  0.04895800  0.00000000       0.007
   0.00000000  0.05507776  0.00000000       0.007
   0.00000000  0.06119751  0.00000000       0.007
   0.00000000  0.06731726  0.00000000       0.007
   0.00000000  0.07343701  0.00000000       0.007
   0.00000000  0.07955676  0.00000000       0.007
   0.00000000  0.08567651  0.00000000       0.007
   0.00000000  0.09179626  0.00000000       0.007
   0.00000000  0.09791601  0.00000000       0.007
   0.00000000  0.10403576  0.00000000       0.007
   0.00000000  0.11015551  0.00000000       0.007
   0.00000000  0.11627526  0.00000000       0.007
   0.00000000  0.11627526  0.00000000       0.007
   0.00611975  0.11627526  0.00000000       0.007
   0.01223950  0.11627526  0.00000000       0.007
   0.01835925  0.11627526  0.00000000       0.007
   0.02447900  0.11627526  0.00000000       0.007
   0.03059875  0.11627526  0.00000000       0.007
   0.03671850  0.11627526  0.00000000       0.007
   0.04283825  0.11627526  0.00000000       0.007
   0.04895800  0.11627526  0.00000000       0.007
   0.05507776  0.11627526  0.00000000       0.007
   0.06119751  0.11627526  0.00000000       0.007
   0.06731726  0.11627526  0.00000000       0.007
   0.07343701  0.11627526  0.00000000       0.007
   0.07955676  0.11627526  0.00000000       0.007
   0.08567651  0.11627526  0.00000000       0.007
   0.09179626  0.11627526  0.00000000       0.007
   0.09791601  0.11627526  0.00000000       0.007
   0.10403576  0.11627526  0.00000000       0.007
   0.11015551  0.11627526  0.00000000       0.007
   0.11627526  0.11627526  0.00000000       0.007
   0.11627526  0.11627526  0.00000000       0.007
   0.11015551  0.11015551  0.00000000       0.007
   0.10403576  0.10403576  0.00000000       0.007
   0.09791601  0.09791601  0.00000000       0.007
   0.09179626  0.09179626  0.00000000       0.007
   0.08567651  0.08567651  0.00000000       0.007
   0.07955676  0.07955676  0.00000000       0.007
   0.07343701  0.07343701  0.00000000       0.007
   0.06731726  0.06731726  0.00000000       0.007
   0.06119751  0.06119751  0.00000000       0.007
   0.05507776  0.05507776  0.00000000       0.007
   0.04895800  0.04895800  0.00000000       0.007
   0.04283825  0.04283825  0.00000000       0.007
   0.03671850  0.03671850  0.00000000       0.007
   0.03059875  0.03059875  0.00000000       0.007
   0.02447900  0.02447900  0.00000000       0.007
   0.01835925  0.01835925  0.00000000       0.007
   0.01223950  0.01223950  0.00000000       0.007
   0.00611975  0.00611975  0.00000000       0.007
   0.00000000  0.00000000  0.00000000       0.007
   0.00000000  0.00000000  0.00000000       0.007
   0.00000000  0.00000000  0.00428187       0.007
   0.00000000  0.00000000  0.00856374       0.007
   0.00000000  0.00000000  0.01284562       0.007
   0.00000000  0.00000000  0.01712749       0.007
   0.00000000  0.00000000  0.02140936       0.007
   0.00000000  0.00000000  0.02569123       0.007
   0.00000000  0.00000000  0.02997310       0.007
   0.00000000  0.00000000  0.03425497       0.007
   0.00000000  0.00000000  0.03853685       0.007
   0.00000000  0.00000000  0.04281872       0.007
   0.00000000  0.00000000  0.04710059       0.007
   0.00000000  0.00000000  0.05138246       0.007
   0.00000000  0.00000000  0.05566433       0.007
   0.00000000  0.00000000  0.05994621       0.007
   0.00000000  0.00000000  0.06422808       0.007
   0.00000000  0.00000000  0.06850995       0.007
   0.00000000  0.00000000  0.07279182       0.007
   0.00000000  0.00000000  0.07707369       0.007
   0.00000000  0.00000000  0.08135556       0.007
   0.00000000  0.00000000  0.08135556       0.007
   0.00000000  0.00611975  0.08135556       0.007
   0.00000000  0.01223950  0.08135556       0.007
   0.00000000  0.01835925  0.08135556       0.007
   0.00000000  0.02447900  0.08135556       0.007
   0.00000000  0.03059875  0.08135556       0.007
   0.00000000  0.03671850  0.08135556       0.007
   0.00000000  0.04283825  0.08135556       0.007
   0.00000000  0.04895800  0.08135556       0.007
   0.00000000  0.05507776  0.08135556       0.007
   0.00000000  0.06119751  0.08135556       0.007
   0.00000000  0.06731726  0.08135556       0.007
   0.00000000  0.07343701  0.08135556       0.007
   0.00000000  0.07955676  0.08135556       0.007
   0.00000000  0.08567651  0.08135556       0.007
   0.00000000  0.09179626  0.08135556       0.007
   0.00000000  0.09791601  0.08135556       0.007
   0.00000000  0.10403576  0.08135556       0.007
   0.00000000  0.11015551  0.08135556       0.007
   0.00000000  0.11627526  0.08135556       0.007
   0.00000000  0.11627526  0.08135556       0.007
   0.00611975  0.11627526  0.08135556       0.007
   0.01223950  0.11627526  0.08135556       0.007
   0.01835925  0.11627526  0.08135556       0.007
   0.02447900  0.11627526  0.08135556       0.007
   0.03059875  0.11627526  0.08135556       0.007
   0.03671850  0.11627526  0.08135556       0.007
   0.04283825  0.11627526  0.08135556       0.007
   0.04895800  0.11627526  0.08135556       0.007
   0.05507776  0.11627526  0.08135556       0.007
   0.06119751  0.11627526  0.08135556       0.007
   0.06731726  0.11627526  0.08135556       0.007
   0.07343701  0.11627526  0.08135556       0.007
   0.07955676  0.11627526  0.08135556       0.007
   0.08567651  0.11627526  0.08135556       0.007
   0.09179626  0.11627526  0.08135556       0.007
   0.09791601  0.11627526  0.08135556       0.007
   0.10403576  0.11627526  0.08135556       0.007
   0.11015551  0.11627526  0.08135556       0.007
   0.11627526  0.11627526  0.08135556       0.007
   0.11627526  0.11627526  0.08135556       0.007
   0.11015551  0.11015551  0.08135556       0.007
   0.10403576  0.10403576  0.08135556       0.007
   0.09791601  0.09791601  0.08135556       0.007
   0.09179626  0.09179626  0.08135556       0.007
   0.08567651  0.08567651  0.08135556       0.007
   0.07955676  0.07955676  0.08135556       0.007
   0.07343701  0.07343701  0.08135556       0.007
   0.06731726  0.06731726  0.08135556       0.007
   0.06119751  0.06119751  0.08135556       0.007
   0.05507776  0.05507776  0.08135556       0.007
   0.04895800  0.04895800  0.08135556       0.007
   0.04283825  0.04283825  0.08135556       0.007
   0.03671850  0.03671850  0.08135556       0.007
   0.03059875  0.03059875  0.08135556       0.007
   0.02447900  0.02447900  0.08135556       0.007
   0.01835925  0.01835925  0.08135556       0.007
   0.01223950  0.01223950  0.08135556       0.007
   0.00611975  0.00611975  0.08135556       0.007
   0.00000000  0.00000000  0.08135556       0.007
 
 k-points in reciprocal lattice and weights: K-points alon1g high symmetry lines     
   0.00000000  0.00000000  0.00000000       0.007
   0.00000000  0.02631579  0.00000000       0.007
   0.00000000  0.05263158  0.00000000       0.007
   0.00000000  0.07894737  0.00000000       0.007
   0.00000000  0.10526316  0.00000000       0.007
   0.00000000  0.13157895  0.00000000       0.007
   0.00000000  0.15789474  0.00000000       0.007
   0.00000000  0.18421053  0.00000000       0.007
   0.00000000  0.21052632  0.00000000       0.007
   0.00000000  0.23684211  0.00000000       0.007
   0.00000000  0.26315789  0.00000000       0.007
   0.00000000  0.28947368  0.00000000       0.007
   0.00000000  0.31578947  0.00000000       0.007
   0.00000000  0.34210526  0.00000000       0.007
   0.00000000  0.36842105  0.00000000       0.007
   0.00000000  0.39473684  0.00000000       0.007
   0.00000000  0.42105263  0.00000000       0.007
   0.00000000  0.44736842  0.00000000       0.007
   0.00000000  0.47368421  0.00000000       0.007
   0.00000000  0.50000000  0.00000000       0.007
   0.00000000  0.50000000  0.00000000       0.007
   0.02631579  0.50000000  0.00000000       0.007
   0.05263158  0.50000000  0.00000000       0.007
   0.07894737  0.50000000  0.00000000       0.007
   0.10526316  0.50000000  0.00000000       0.007
   0.13157895  0.50000000  0.00000000       0.007
   0.15789474  0.50000000  0.00000000       0.007
   0.18421053  0.50000000  0.00000000       0.007
   0.21052632  0.50000000  0.00000000       0.007
   0.23684211  0.50000000  0.00000000       0.007
   0.26315789  0.50000000  0.00000000       0.007
   0.28947368  0.50000000  0.00000000       0.007
   0.31578947  0.50000000  0.00000000       0.007
   0.34210526  0.50000000  0.00000000       0.007
   0.36842105  0.50000000  0.00000000       0.007
   0.39473684  0.50000000  0.00000000       0.007
   0.42105263  0.50000000  0.00000000       0.007
   0.44736842  0.50000000  0.00000000       0.007
   0.47368421  0.50000000  0.00000000       0.007
   0.50000000  0.50000000  0.00000000       0.007
   0.50000000  0.50000000  0.00000000       0.007
   0.47368421  0.47368421  0.00000000       0.007
   0.44736842  0.44736842  0.00000000       0.007
   0.42105263  0.42105263  0.00000000       0.007
   0.39473684  0.39473684  0.00000000       0.007
   0.36842105  0.36842105  0.00000000       0.007
   0.34210526  0.34210526  0.00000000       0.007
   0.31578947  0.31578947  0.00000000       0.007
   0.28947368  0.28947368  0.00000000       0.007
   0.26315789  0.26315789  0.00000000       0.007
   0.23684211  0.23684211  0.00000000       0.007
   0.21052632  0.21052632  0.00000000       0.007
   0.18421053  0.18421053  0.00000000       0.007
   0.15789474  0.15789474  0.00000000       0.007
   0.13157895  0.13157895  0.00000000       0.007
   0.10526316  0.10526316  0.00000000       0.007
   0.07894737  0.07894737  0.00000000       0.007
   0.05263158  0.05263158  0.00000000       0.007
   0.02631579  0.02631579  0.00000000       0.007
   0.00000000  0.00000000  0.00000000       0.007
   0.00000000  0.00000000  0.00000000       0.007
   0.00000000  0.00000000  0.02631579       0.007
   0.00000000  0.00000000  0.05263158       0.007
   0.00000000  0.00000000  0.07894737       0.007
   0.00000000  0.00000000  0.10526316       0.007
   0.00000000  0.00000000  0.13157895       0.007
   0.00000000  0.00000000  0.15789474       0.007
   0.00000000  0.00000000  0.18421053       0.007
   0.00000000  0.00000000  0.21052632       0.007
   0.00000000  0.00000000  0.23684211       0.007
   0.00000000  0.00000000  0.26315789       0.007
   0.00000000  0.00000000  0.28947368       0.007
   0.00000000  0.00000000  0.31578947       0.007
   0.00000000  0.00000000  0.34210526       0.007
   0.00000000  0.00000000  0.36842105       0.007
   0.00000000  0.00000000  0.39473684       0.007
   0.00000000  0.00000000  0.42105263       0.007
   0.00000000  0.00000000  0.44736842       0.007
   0.00000000  0.00000000  0.47368421       0.007
   0.00000000  0.00000000  0.50000000       0.007
   0.00000000  0.00000000  0.50000000       0.007
   0.00000000  0.02631579  0.50000000       0.007
   0.00000000  0.05263158  0.50000000       0.007
   0.00000000  0.07894737  0.50000000       0.007
   0.00000000  0.10526316  0.50000000       0.007
   0.00000000  0.13157895  0.50000000       0.007
   0.00000000  0.15789474  0.50000000       0.007
   0.00000000  0.18421053  0.50000000       0.007
   0.00000000  0.21052632  0.50000000       0.007
   0.00000000  0.23684211  0.50000000       0.007
   0.00000000  0.26315789  0.50000000       0.007
   0.00000000  0.28947368  0.50000000       0.007
   0.00000000  0.31578947  0.50000000       0.007
   0.00000000  0.34210526  0.50000000       0.007
   0.00000000  0.36842105  0.50000000       0.007
   0.00000000  0.39473684  0.50000000       0.007
   0.00000000  0.42105263  0.50000000       0.007
   0.00000000  0.44736842  0.50000000       0.007
   0.00000000  0.47368421  0.50000000       0.007
   0.00000000  0.50000000  0.50000000       0.007
   0.00000000  0.50000000  0.50000000       0.007
   0.02631579  0.50000000  0.50000000       0.007
   0.05263158  0.50000000  0.50000000       0.007
   0.07894737  0.50000000  0.50000000       0.007
   0.10526316  0.50000000  0.50000000       0.007
   0.13157895  0.50000000  0.50000000       0.007
   0.15789474  0.50000000  0.50000000       0.007
   0.18421053  0.50000000  0.50000000       0.007
   0.21052632  0.50000000  0.50000000       0.007
   0.23684211  0.50000000  0.50000000       0.007
   0.26315789  0.50000000  0.50000000       0.007
   0.28947368  0.50000000  0.50000000       0.007
   0.31578947  0.50000000  0.50000000       0.007
   0.34210526  0.50000000  0.50000000       0.007
   0.36842105  0.50000000  0.50000000       0.007
   0.39473684  0.50000000  0.50000000       0.007
   0.42105263  0.50000000  0.50000000       0.007
   0.44736842  0.50000000  0.50000000       0.007
   0.47368421  0.50000000  0.50000000       0.007
   0.50000000  0.50000000  0.50000000       0.007
   0.50000000  0.50000000  0.50000000       0.007
   0.47368421  0.47368421  0.50000000       0.007
   0.44736842  0.44736842  0.50000000       0.007
   0.42105263  0.42105263  0.50000000       0.007
   0.39473684  0.39473684  0.50000000       0.007
   0.36842105  0.36842105  0.50000000       0.007
   0.34210526  0.34210526  0.50000000       0.007
   0.31578947  0.31578947  0.50000000       0.007
   0.28947368  0.28947368  0.50000000       0.007
   0.26315789  0.26315789  0.50000000       0.007
   0.23684211  0.23684211  0.50000000       0.007
   0.21052632  0.21052632  0.50000000       0.007
   0.18421053  0.18421053  0.50000000       0.007
   0.15789474  0.15789474  0.50000000       0.007
   0.13157895  0.13157895  0.50000000       0.007
   0.10526316  0.10526316  0.50000000       0.007
   0.07894737  0.07894737  0.50000000       0.007
   0.05263158  0.05263158  0.50000000       0.007
   0.02631579  0.02631579  0.50000000       0.007
   0.00000000  0.00000000  0.50000000       0.007
 
 position of ions in fractional coordinates (direct lattice) 
   0.50000000  0.00000000  0.72573602
   0.00000000  0.50000000  0.27426400
   0.00000000  0.00000000  0.00000000
   0.50000000  0.50000000  0.50000000
 
 position of ions in cartesian coordinates  (Angst):
   2.15007043  0.00000000  4.46027279
   0.00000000  2.15007043  1.68558848
   0.00000000  0.00000000  0.00000000
   2.15007043  2.15007043  3.07293057
 


--------------------------------------------------------------------------------------------------------


 k-point  1 :   0.0000 0.0000 0.0000  plane waves:    2879
 k-point  2 :   0.0000 0.0263 0.0000  plane waves:    2885
 k-point  3 :   0.0000 0.0526 0.0000  plane waves:    2873
 k-point  4 :   0.0000 0.0789 0.0000  plane waves:    2885
 k-point  5 :   0.0000 0.1053 0.0000  plane waves:    2893
 k-point  6 :   0.0000 0.1316 0.0000  plane waves:    2887
 k-point  7 :   0.0000 0.1579 0.0000  plane waves:    2883
 k-point  8 :   0.0000 0.1842 0.0000  plane waves:    2888
 k-point  9 :   0.0000 0.2105 0.0000  plane waves:    2886
 k-point 10 :   0.0000 0.2368 0.0000  plane waves:    2888
 k-point 11 :   0.0000 0.2632 0.0000  plane waves:    2888
 k-point 12 :   0.0000 0.2895 0.0000  plane waves:    2882
 k-point 13 :   0.0000 0.3158 0.0000  plane waves:    2882
 k-point 14 :   0.0000 0.3421 0.0000  plane waves:    2882
 k-point 15 :   0.0000 0.3684 0.0000  plane waves:    2886
 k-point 16 :   0.0000 0.3947 0.0000  plane waves:    2884
 k-point 17 :   0.0000 0.4211 0.0000  plane waves:    2890
 k-point 18 :   0.0000 0.4474 0.0000  plane waves:    2896
 k-point 19 :   0.0000 0.4737 0.0000  plane waves:    2904
 k-point 20 :   0.0000 0.5000 0.0000  plane waves:    2892
 k-point 21 :   0.0000 0.5000 0.0000  plane waves:    2892
 k-point 22 :   0.0263 0.5000 0.0000  plane waves:    2894
 k-point 23 :   0.0526 0.5000 0.0000  plane waves:    2894
 k-point 24 :   0.0789 0.5000 0.0000  plane waves:    2898
 k-point 25 :   0.1053 0.5000 0.0000  plane waves:    2890
 k-point 26 :   0.1316 0.5000 0.0000  plane waves:    2894
 k-point 27 :   0.1579 0.5000 0.0000  plane waves:    2894
 k-point 28 :   0.1842 0.5000 0.0000  plane waves:    2888
 k-point 29 :   0.2105 0.5000 0.0000  plane waves:    2892
 k-point 30 :   0.2368 0.5000 0.0000  plane waves:    2892
 k-point 31 :   0.2632 0.5000 0.0000  plane waves:    2884
 k-point 32 :   0.2895 0.5000 0.0000  plane waves:    2874
 k-point 33 :   0.3158 0.5000 0.0000  plane waves:    2884
 k-point 34 :   0.3421 0.5000 0.0000  plane waves:    2884
 k-point 35 :   0.3684 0.5000 0.0000  plane waves:    2888
 k-point 36 :   0.3947 0.5000 0.0000  plane waves:    2878
 k-point 37 :   0.4211 0.5000 0.0000  plane waves:    2870
 k-point 38 :   0.4474 0.5000 0.0000  plane waves:    2868
 k-point 39 :   0.4737 0.5000 0.0000  plane waves:    2868
 k-point 40 :   0.5000 0.5000 0.0000  plane waves:    2880
 k-point 41 :   0.5000 0.5000 0.0000  plane waves:    2880
 k-point 42 :   0.4737 0.4737 0.0000  plane waves:    2868
 k-point 43 :   0.4474 0.4474 0.0000  plane waves:    2877
 k-point 44 :   0.4211 0.4211 0.0000  plane waves:    2889
 k-point 45 :   0.3947 0.3947 0.0000  plane waves:    2877
 k-point 46 :   0.3684 0.3684 0.0000  plane waves:    2875
 k-point 47 :   0.3421 0.3421 0.0000  plane waves:    2883
 k-point 48 :   0.3158 0.3158 0.0000  plane waves:    2887
 k-point 49 :   0.2895 0.2895 0.0000  plane waves:    2885
 k-point 50 :   0.2632 0.2632 0.0000  plane waves:    2889
 k-point 51 :   0.2368 0.2368 0.0000  plane waves:    2883
 k-point 52 :   0.2105 0.2105 0.0000  plane waves:    2887
 k-point 53 :   0.1842 0.1842 0.0000  plane waves:    2871
 k-point 54 :   0.1579 0.1579 0.0000  plane waves:    2871
 k-point 55 :   0.1316 0.1316 0.0000  plane waves:    2879
 k-point 56 :   0.1053 0.1053 0.0000  plane waves:    2877
 k-point 57 :   0.0789 0.0789 0.0000  plane waves:    2885
 k-point 58 :   0.0526 0.0526 0.0000  plane waves:    2883
 k-point 59 :   0.0263 0.0263 0.0000  plane waves:    2881
 k-point 60 :   0.0000 0.0000 0.0000  plane waves:    2879
 k-point 61 :   0.0000 0.0000 0.0000  plane waves:    2879
 k-point 62 :   0.0000 0.0000 0.0263  plane waves:    2883
 k-point 63 :   0.0000 0.0000 0.0526  plane waves:    2887
 k-point 64 :   0.0000 0.0000 0.0789  plane waves:    2879
 k-point 65 :   0.0000 0.0000 0.1053  plane waves:    2879
 k-point 66 :   0.0000 0.0000 0.1316  plane waves:    2875
 k-point 67 :   0.0000 0.0000 0.1579  plane waves:    2867
 k-point 68 :   0.0000 0.0000 0.1842  plane waves:    2875
 k-point 69 :   0.0000 0.0000 0.2105  plane waves:    2874
 k-point 70 :   0.0000 0.0000 0.2368  plane waves:    2870
 k-point 71 :   0.0000 0.0000 0.2632  plane waves:    2874
 k-point 72 :   0.0000 0.0000 0.2895  plane waves:    2874
 k-point 73 :   0.0000 0.0000 0.3158  plane waves:    2874
 k-point 74 :   0.0000 0.0000 0.3421  plane waves:    2882
 k-point 75 :   0.0000 0.0000 0.3684  plane waves:    2882
 k-point 76 :   0.0000 0.0000 0.3947  plane waves:    2902
 k-point 77 :   0.0000 0.0000 0.4211  plane waves:    2894
 k-point 78 :   0.0000 0.0000 0.4474  plane waves:    2890
 k-point 79 :   0.0000 0.0000 0.4737  plane waves:    2886
 k-point 80 :   0.0000 0.0000 0.5000  plane waves:    2886
 k-point 81 :   0.0000 0.0000 0.5000  plane waves:    2886
 k-point 82 :   0.0000 0.0263 0.5000  plane waves:    2894
 k-point 83 :   0.0000 0.0526 0.5000  plane waves:    2882
 k-point 84 :   0.0000 0.0789 0.5000  plane waves:    2886
 k-point 85 :   0.0000 0.1053 0.5000  plane waves:    2890
 k-point 86 :   0.0000 0.1316 0.5000  plane waves:    2892
 k-point 87 :   0.0000 0.1579 0.5000  plane waves:    2874
 k-point 88 :   0.0000 0.1842 0.5000  plane waves:    2870
 k-point 89 :   0.0000 0.2105 0.5000  plane waves:    2866
 k-point 90 :   0.0000 0.2368 0.5000  plane waves:    2868
 k-point 91 :   0.0000 0.2632 0.5000  plane waves:    2878
 k-point 92 :   0.0000 0.2895 0.5000  plane waves:    2878
 k-point 93 :   0.0000 0.3158 0.5000  plane waves:    2882
 k-point 94 :   0.0000 0.3421 0.5000  plane waves:    2886
 k-point 95 :   0.0000 0.3684 0.5000  plane waves:    2900
 k-point 96 :   0.0000 0.3947 0.5000  plane waves:    2886
 k-point 97 :   0.0000 0.4211 0.5000  plane waves:    2886
 k-point 98 :   0.0000 0.4474 0.5000  plane waves:    2894
 k-point 99 :   0.0000 0.4737 0.5000  plane waves:    2904
 k-point ** :   0.0000 0.5000 0.5000  plane waves:    2924
 k-point ** :   0.0000 0.5000 0.5000  plane waves:    2924
 k-point ** :   0.0263 0.5000 0.5000  plane waves:    2904
 k-point ** :   0.0526 0.5000 0.5000  plane waves:    2892
 k-point ** :   0.0789 0.5000 0.5000  plane waves:    2900
 k-point ** :   0.1053 0.5000 0.5000  plane waves:    2896
 k-point ** :   0.1316 0.5000 0.5000  plane waves:    2900
 k-point ** :   0.1579 0.5000 0.5000  plane waves:    2900
 k-point ** :   0.1842 0.5000 0.5000  plane waves:    2896
 k-point ** :   0.2105 0.5000 0.5000  plane waves:    2904
 k-point ** :   0.2368 0.5000 0.5000  plane waves:    2900
 k-point ** :   0.2632 0.5000 0.5000  plane waves:    2884
 k-point ** :   0.2895 0.5000 0.5000  plane waves:    2888
 k-point ** :   0.3158 0.5000 0.5000  plane waves:    2888
 k-point ** :   0.3421 0.5000 0.5000  plane waves:    2880
 k-point ** :   0.3684 0.5000 0.5000  plane waves:    2876
 k-point ** :   0.3947 0.5000 0.5000  plane waves:    2888
 k-point ** :   0.4211 0.5000 0.5000  plane waves:    2884
 k-point ** :   0.4474 0.5000 0.5000  plane waves:    2884
 k-point ** :   0.4737 0.5000 0.5000  plane waves:    2880
 k-point ** :   0.5000 0.5000 0.5000  plane waves:    2872
 k-point ** :   0.5000 0.5000 0.5000  plane waves:    2872
 k-point ** :   0.4737 0.4737 0.5000  plane waves:    2880
 k-point ** :   0.4474 0.4474 0.5000  plane waves:    2874
 k-point ** :   0.4211 0.4211 0.5000  plane waves:    2890
 k-point ** :   0.3947 0.3947 0.5000  plane waves:    2896
 k-point ** :   0.3684 0.3684 0.5000  plane waves:    2910
 k-point ** :   0.3421 0.3421 0.5000  plane waves:    2894
 k-point ** :   0.3158 0.3158 0.5000  plane waves:    2894
 k-point ** :   0.2895 0.2895 0.5000  plane waves:    2898
 k-point ** :   0.2632 0.2632 0.5000  plane waves:    2888
 k-point ** :   0.2368 0.2368 0.5000  plane waves:    2888
 k-point ** :   0.2105 0.2105 0.5000  plane waves:    2868
 k-point ** :   0.1842 0.1842 0.5000  plane waves:    2864
 k-point ** :   0.1579 0.1579 0.5000  plane waves:    2858
 k-point ** :   0.1316 0.1316 0.5000  plane waves:    2866
 k-point ** :   0.1053 0.1053 0.5000  plane waves:    2864
 k-point ** :   0.0789 0.0789 0.5000  plane waves:    2872
 k-point ** :   0.0526 0.0526 0.5000  plane waves:    2874
 k-point ** :   0.0263 0.0263 0.5000  plane waves:    2886
 k-point ** :   0.0000 0.0000 0.5000  plane waves:    2886

 maximum and minimum number of plane-waves per node :       385      336

 maximum number of plane-waves:      2924
 maximum index in each direction: 
   IXMAX=    7   IYMAX=    7   IZMAX=   11
   IXMIN=   -8   IYMIN=   -8   IZMIN=  -11


 parallel 3D FFT for wavefunctions:
    minimum data exchange during FFTs selected (reduces bandwidth)
 parallel 3D FFT for charge:
    minimum data exchange during FFTs selected (reduces bandwidth)


 total amount of memory used by VASP MPI-rank0    59724. kBytes
=======================================================================

   base      :      30000. kBytes
   nonl-proj :      23491. kBytes
   fftplans  :        603. kBytes
   grid      :       1046. kBytes
   one-center:         15. kBytes
   wavefun   :       4569. kBytes
 
     INWAV:  cpu time    0.9678: real time    0.9688
 Broyden mixing: mesh for mixing (old mesh)
   NGX = 15   NGY = 15   NGZ = 23
  (NGX  = 64   NGY  = 64   NGZ  = 96)
  gives a total of   5175 points

 initial charge density was supplied:
 charge density of overlapping atoms calculated
 number of electron      26.0000000 magnetization 
 keeping initial charge density in first step


--------------------------------------------------------------------------------------------------------


 Maximum index for augmentation-charges         1186 (set IRDMAX)


--------------------------------------------------------------------------------------------------------


 First call to EWALD:  gamma=   0.366
 Maximum number of real-space cells 3x 3x 2
 Maximum number of reciprocal cells 2x 2x 3

    FEWALD:  cpu time    0.0015: real time    0.0015


--------------------------------------- Iteration      1(   1)  ---------------------------------------


    POTLOK:  cpu time    0.0184: real time    0.0210
    SETDIJ:  cpu time    0.0082: real time    0.0082
     EDDAV:  cpu time    1.5342: real time    1.5362
       DOS:  cpu time    0.0018: real time    0.0018
    CHARGE:  cpu time    0.0447: real time    0.0447
    MIXING:  cpu time    0.0010: real time    0.0010
    --------------------------------------------
      LOOP:  cpu time    1.6081: real time    1.6129

 eigenvalue-minimisations  :  8264
 total energy-change (2. order) :-0.9632762E+01  (-0.2789771E+02)
 number of electron      26.0000008 magnetization 
 augmentation part        4.1377843 magnetization 

 Broyden mixing:
  rms(total) = 0.78286E+00    rms(broyden)= 0.78286E+00
  rms(prec ) = 0.91152E+00
  weight for this iteration     100.00

 Free energy of the ion-electron system (eV)
  ---------------------------------------------------
  alpha Z        PSCENC =        64.20128509
  Ewald energy   TEWEN  =     -1439.91766544
  -Hartree energ DENC   =      -749.41397116
  -exchange      EXHF   =         0.00000000
  -V(xc)+E(xc)   XCENC  =        -1.78998093
  PAW double counting   =      1946.54768465    -1848.13466329
  entropy T*S    EENTRO =        -0.00135949
  eigenvalues    EBANDS =      -228.24731293
  atomic energy  EATOM  =      2247.12322143
  Solvation  Ediel_sol  =         0.00000000
  ---------------------------------------------------
  free energy    TOTEN  =        -9.63276207 eV

  energy without entropy =       -9.63140258  energy(sigma->0) =       -9.63208232


--------------------------------------------------------------------------------------------------------




--------------------------------------- Iteration      1(   2)  ---------------------------------------


    POTLOK:  cpu time    0.0088: real time    0.0097
    SETDIJ:  cpu time    0.0035: real time    0.0035
     EDDAV:  cpu time    1.2027: real time    1.2038
       DOS:  cpu time    0.0017: real time    0.0017
    CHARGE:  cpu time    0.0440: real time    0.0441
    MIXING:  cpu time    0.0008: real time    0.0008
    --------------------------------------------
      LOOP:  cpu time    1.2615: real time    1.2636

 eigenvalue-minimisations  :  6484
 total energy-change (2. order) :-0.3506665E+01  (-0.3648125E+01)
 number of electron      26.0000008 magnetization 
 augmentation part        3.9808256 magnetization 

 Broyden mixing:
  rms(total) = 0.24990E+00    rms(broyden)= 0.24990E+00
  rms(prec ) = 0.36574E+00
  weight for this iteration     100.00

 eigenvalues of (default mixing * dielectric matrix)
  average eigenvalue GAMMA=   0.9618
  0.9618

 Free energy of the ion-electron system (eV)
  ---------------------------------------------------
  alpha Z        PSCENC =        64.20128509
  Ewald energy   TEWEN  =     -1439.91766544
  -Hartree energ DENC   =      -752.92882305
  -exchange      EXHF   =         0.00000000
  -V(xc)+E(xc)   XCENC  =        -1.34050421
  PAW double counting   =      2182.05445403    -2084.82276804
  entropy T*S    EENTRO =        -0.00338847
  eigenvalues    EBANDS =      -227.50523883
  atomic energy  EATOM  =      2247.12322143
  Solvation  Ediel_sol  =         0.00000000
  ---------------------------------------------------
  free energy    TOTEN  =       -13.13942748 eV

  energy without entropy =      -13.13603902  energy(sigma->0) =      -13.13773325


--------------------------------------------------------------------------------------------------------




--------------------------------------- Iteration      1(   3)  ---------------------------------------


    POTLOK:  cpu time    0.0086: real time    0.0105
    SETDIJ:  cpu time    0.0028: real time    0.0028
     EDDAV:  cpu time    1.3509: real time    1.3523
       DOS:  cpu time    0.0017: real time    0.0017
    CHARGE:  cpu time    0.0442: real time    0.0442
    MIXING:  cpu time    0.0006: real time    0.0006
    --------------------------------------------
      LOOP:  cpu time    1.4087: real time    1.4121

 eigenvalue-minimisations  :  7780
 total energy-change (2. order) :-0.3559598E-01  (-0.9015898E-01)
 number of electron      26.0000008 magnetization 
 augmentation part        3.9536147 magnetization 

 Broyden mixing:
  rms(total) = 0.14219E+00    rms(broyden)= 0.14219E+00
  rms(prec ) = 0.21025E+00
  weight for this iteration     100.00

 eigenvalues of (default mixing * dielectric matrix)
  average eigenvalue GAMMA=   1.5388
  1.0499  2.0278

 Free energy of the ion-electron system (eV)
  ---------------------------------------------------
  alpha Z        PSCENC =        64.20128509
  Ewald energy   TEWEN  =     -1439.91766544
  -Hartree energ DENC   =      -753.05069412
  -exchange      EXHF   =         0.00000000
  -V(xc)+E(xc)   XCENC  =        -1.17490225
  PAW double counting   =      2299.45480018    -2203.25248948
  entropy T*S    EENTRO =        -0.00331925
  eigenvalues    EBANDS =      -226.55525962
  atomic energy  EATOM  =      2247.12322143
  Solvation  Ediel_sol  =         0.00000000
  ---------------------------------------------------
  free energy    TOTEN  =       -13.17502346 eV

  energy without entropy =      -13.17170422  energy(sigma->0) =      -13.17336384


--------------------------------------------------------------------------------------------------------




--------------------------------------- Iteration      1(   4)  ---------------------------------------


    POTLOK:  cpu time    0.0099: real time    0.0106
    SETDIJ:  cpu time    0.0028: real time    0.0028
     EDDAV:  cpu time    1.3497: real time    1.3511
       DOS:  cpu time    0.0017: real time    0.0017
    CHARGE:  cpu time    0.0439: real time    0.0440
    MIXING:  cpu time    0.0005: real time    0.0005
    --------------------------------------------
      LOOP:  cpu time    1.4086: real time    1.4107

 eigenvalue-minimisations  :  7632
 total energy-change (2. order) : 0.1145212E-01  (-0.6163293E-02)
 number of electron      26.0000008 magnetization 
 augmentation part        3.9621702 magnetization 

 Broyden mixing:
  rms(total) = 0.28548E-01    rms(broyden)= 0.28548E-01
  rms(prec ) = 0.47820E-01
  weight for this iteration     100.00

 eigenvalues of (default mixing * dielectric matrix)
  average eigenvalue GAMMA=   1.4952
  2.3773  1.0541  1.0541

 Free energy of the ion-electron system (eV)
  ---------------------------------------------------
  alpha Z        PSCENC =        64.20128509
  Ewald energy   TEWEN  =     -1439.91766544
  -Hartree energ DENC   =      -753.83802680
  -exchange      EXHF   =         0.00000000
  -V(xc)+E(xc)   XCENC  =        -0.97803795
  PAW double counting   =      2417.09769500    -2322.14733895
  entropy T*S    EENTRO =        -0.00337360
  eigenvalues    EBANDS =      -224.70133011
  atomic energy  EATOM  =      2247.12322143
  Solvation  Ediel_sol  =         0.00000000
  ---------------------------------------------------
  free energy    TOTEN  =       -13.16357134 eV

  energy without entropy =      -13.16019774  energy(sigma->0) =      -13.16188454


--------------------------------------------------------------------------------------------------------




--------------------------------------- Iteration      1(   5)  ---------------------------------------


    POTLOK:  cpu time    0.0076: real time    0.0096
    SETDIJ:  cpu time    0.0027: real time    0.0027
     EDDAV:  cpu time    1.2222: real time    1.2234
       DOS:  cpu time    0.0017: real time    0.0017
    CHARGE:  cpu time    0.0438: real time    0.0439
    MIXING:  cpu time    0.0006: real time    0.0006
    --------------------------------------------
      LOOP:  cpu time    1.2786: real time    1.2819

 eigenvalue-minimisations  :  6768
 total energy-change (2. order) :-0.1920724E-02  (-0.3727197E-03)
 number of electron      26.0000008 magnetization 
 augmentation part        3.9647275 magnetization 

 Broyden mixing:
  rms(total) = 0.11518E-01    rms(broyden)= 0.11518E-01
  rms(prec ) = 0.18669E-01
  weight for this iteration     100.00

 eigenvalues of (default mixing * dielectric matrix)
  average eigenvalue GAMMA=   1.6590
  2.4993  2.0746  1.0310  1.0310

 Free energy of the ion-electron system (eV)
  ---------------------------------------------------
  alpha Z        PSCENC =        64.20128509
  Ewald energy   TEWEN  =     -1439.91766544
  -Hartree energ DENC   =      -754.42572215
  -exchange      EXHF   =         0.00000000
  -V(xc)+E(xc)   XCENC  =        -0.90564564
  PAW double counting   =      2439.96213042    -2345.13306950
  entropy T*S    EENTRO =        -0.00337645
  eigenvalues    EBANDS =      -224.06664982
  atomic energy  EATOM  =      2247.12322143
  Solvation  Ediel_sol  =         0.00000000
  ---------------------------------------------------
  free energy    TOTEN  =       -13.16549207 eV

  energy without entropy =      -13.16211562  energy(sigma->0) =      -13.16380384


--------------------------------------------------------------------------------------------------------




--------------------------------------- Iteration      1(   6)  ---------------------------------------


    POTLOK:  cpu time    0.0072: real time    0.0072
    SETDIJ:  cpu time    0.0027: real time    0.0027
     EDDAV:  cpu time    1.1797: real time    1.1808
       DOS:  cpu time    0.0017: real time    0.0017
    CHARGE:  cpu time    0.0439: real time    0.0439
    MIXING:  cpu time    0.0005: real time    0.0005
    --------------------------------------------
      LOOP:  cpu time    1.2356: real time    1.2368

 eigenvalue-minimisations  :  6484
 total energy-change (2. order) :-0.8294237E-03  (-0.1127901E-03)
 number of electron      26.0000008 magnetization 
 augmentation part        3.9649717 magnetization 

 Broyden mixing:
  rms(total) = 0.27161E-02    rms(broyden)= 0.27160E-02
  rms(prec ) = 0.47800E-02
  weight for this iteration     100.00

 eigenvalues of (default mixing * dielectric matrix)
  average eigenvalue GAMMA=   1.6441
  2.7428  2.1006  0.9764  1.1177  1.2832

 Free energy of the ion-electron system (eV)
  ---------------------------------------------------
  alpha Z        PSCENC =        64.20128509
  Ewald energy   TEWEN  =     -1439.91766544
  -Hartree energ DENC   =      -754.79378561
  -exchange      EXHF   =         0.00000000
  -V(xc)+E(xc)   XCENC  =        -0.87447369
  PAW double counting   =      2436.08208437    -2341.10140031
  entropy T*S    EENTRO =        -0.00334919
  eigenvalues    EBANDS =      -223.88223814
  atomic energy  EATOM  =      2247.12322143
  Solvation  Ediel_sol  =         0.00000000
  ---------------------------------------------------
  free energy    TOTEN  =       -13.16632149 eV

  energy without entropy =      -13.16297230  energy(sigma->0) =      -13.16464690


--------------------------------------------------------------------------------------------------------




--------------------------------------- Iteration      1(   7)  ---------------------------------------


    POTLOK:  cpu time    0.0069: real time    0.0069
    SETDIJ:  cpu time    0.0026: real time    0.0026
     EDDAV:  cpu time    1.2416: real time    1.2428
       DOS:  cpu time    0.0017: real time    0.0017
    CHARGE:  cpu time    0.0440: real time    0.0441
    MIXING:  cpu time    0.0007: real time    0.0007
    --------------------------------------------
      LOOP:  cpu time    1.2975: real time    1.2988

 eigenvalue-minimisations  :  6924
 total energy-change (2. order) :-0.1053247E-03  (-0.9157139E-05)
 number of electron      26.0000008 magnetization 
 augmentation part        3.9650245 magnetization 

 Broyden mixing:
  rms(total) = 0.13581E-02    rms(broyden)= 0.13581E-02
  rms(prec ) = 0.24202E-02
  weight for this iteration     100.00

 eigenvalues of (default mixing * dielectric matrix)
  average eigenvalue GAMMA=   1.7102
  2.8613  2.0895  2.0895  0.9929  1.1139  1.1139

 Free energy of the ion-electron system (eV)
  ---------------------------------------------------
  alpha Z        PSCENC =        64.20128509
  Ewald energy   TEWEN  =     -1439.91766544
  -Hartree energ DENC   =      -754.88735453
  -exchange      EXHF   =         0.00000000
  -V(xc)+E(xc)   XCENC  =        -0.86882647
  PAW double counting   =      2435.06107210    -2340.07012350
  entropy T*S    EENTRO =        -0.00334662
  eigenvalues    EBANDS =      -223.80468886
  atomic energy  EATOM  =      2247.12322143
  Solvation  Ediel_sol  =         0.00000000
  ---------------------------------------------------
  free energy    TOTEN  =       -13.16642682 eV

  energy without entropy =      -13.16308019  energy(sigma->0) =      -13.16475350


--------------------------------------------------------------------------------------------------------




--------------------------------------- Iteration      1(   8)  ---------------------------------------


    POTLOK:  cpu time    0.0072: real time    0.0086
    SETDIJ:  cpu time    0.0028: real time    0.0028
     EDDAV:  cpu time    1.1691: real time    1.1703
       DOS:  cpu time    0.0016: real time    0.0016
    CHARGE:  cpu time    0.0437: real time    0.0437
    MIXING:  cpu time    0.0006: real time    0.0006
    --------------------------------------------
      LOOP:  cpu time    1.2250: real time    1.2277

 eigenvalue-minimisations  :  6368
 total energy-change (2. order) :-0.3575813E-04  (-0.4979489E-05)
 number of electron      26.0000008 magnetization 
 augmentation part        3.9651424 magnetization 

 Broyden mixing:
  rms(total) = 0.43728E-03    rms(broyden)= 0.43728E-03
  rms(prec ) = 0.75500E-03
  weight for this iteration     100.00

 eigenvalues of (default mixing * dielectric matrix)
  average eigenvalue GAMMA=   1.7300
  3.2418  2.4905  1.5972  1.5972  1.0080  1.0877  1.0877

 Free energy of the ion-electron system (eV)
  ---------------------------------------------------
  alpha Z        PSCENC =        64.20128509
  Ewald energy   TEWEN  =     -1439.91766544
  -Hartree energ DENC   =      -754.95052155
  -exchange      EXHF   =         0.00000000
  -V(xc)+E(xc)   XCENC  =        -0.86593878
  PAW double counting   =      2434.29673428    -2339.30686481
  entropy T*S    EENTRO =        -0.00334585
  eigenvalues    EBANDS =      -223.74336693
  atomic energy  EATOM  =      2247.12322143
  Solvation  Ediel_sol  =         0.00000000
  ---------------------------------------------------
  free energy    TOTEN  =       -13.16646257 eV

  energy without entropy =      -13.16311672  energy(sigma->0) =      -13.16478965


--------------------------------------------------------------------------------------------------------




--------------------------------------- Iteration      1(   9)  ---------------------------------------


    POTLOK:  cpu time    0.0076: real time    0.0095
    SETDIJ:  cpu time    0.0028: real time    0.0028
     EDDAV:  cpu time    1.0568: real time    1.0579
       DOS:  cpu time    0.0017: real time    0.0017
    --------------------------------------------
      LOOP:  cpu time    1.0688: real time    1.0718

 eigenvalue-minimisations  :  5392
 total energy-change (2. order) :-0.2756181E-05  (-0.5906952E-06)
 number of electron      26.0000008 magnetization 
 augmentation part        3.9651424 magnetization 

 Free energy of the ion-electron system (eV)
  ---------------------------------------------------
  alpha Z        PSCENC =        64.20128509
  Ewald energy   TEWEN  =     -1439.91766544
  -Hartree energ DENC   =      -754.95443898
  -exchange      EXHF   =         0.00000000
  -V(xc)+E(xc)   XCENC  =        -0.86584159
  PAW double counting   =      2433.89075788    -2338.89441294
  entropy T*S    EENTRO =        -0.00334401
  eigenvalues    EBANDS =      -223.74602676
  atomic energy  EATOM  =      2247.12322143
  Solvation  Ediel_sol  =         0.00000000
  ---------------------------------------------------
  free energy    TOTEN  =       -13.16646533 eV

  energy without entropy =      -13.16312131  energy(sigma->0) =      -13.16479332


--------------------------------------------------------------------------------------------------------




 average (electrostatic) potential at core
  the test charge radii are     1.2767  1.0856  1.0621
  (the norm of the test charge is              1.0000)
       1 -14.5576       2 -14.5576       3-107.3638       4 -51.3595
 
 
 
 E-fermi :   3.1919     XC(G=0):  -8.7117     alpha+bet : -8.3023


 k-point     1 :       0.0000    0.0000    0.0000
  band No.  band energies     occupation 
      1     -19.2405      2.00000
      2     -19.2405      2.00000
      3     -19.2371      2.00000
      4     -19.2288      2.00000
      5     -19.1725      2.00000
      6      -9.1009      2.00000
      7      -7.3482      2.00000
      8      -3.4823      2.00000
      9       0.5539      2.00000
     10       0.5539      2.00000
     11       1.9251      2.00000
     12       2.9915      2.00000
     13       3.2197      0.43093
     14       3.2197      0.43092
     15       4.2044      0.00000
     16       4.4209      0.00000
     17       6.2257      0.00000
     18       6.2257      0.00000
     19       6.3728      0.00000
     20       8.9501      0.00000

 k-point     2 :       0.0000    0.0263    0.0000
  band No.  band energies     occupation 
      1     -19.2406      2.00000
      2     -19.2405      2.00000
      3     -19.2371      2.00000
      4     -19.2287      2.00000
      5     -19.1726      2.00000
      6      -9.0969      2.00000
      7      -7.3478      2.00000
      8      -3.4805      2.00000
      9       0.5250      2.00000
     10       0.5578      2.00000
     11       1.8754      2.00000
     12       2.9748      2.00000
     13       3.2176      0.46691
     14       3.2471      0.11832
     15       4.2269      0.00000
     16       4.4538      0.00000
     17       6.2227      0.00000
     18       6.2301      0.00000
     19       6.3979      0.00000
     20       8.9822      0.00000

 k-point     3 :       0.0000    0.0526    0.0000
  band No.  band energies     occupation 
      1     -19.2410      2.00000
      2     -19.2405      2.00000
      3     -19.2370      2.00000
      4     -19.2282      2.00000
      5     -19.1727      2.00000
      6      -9.0846      2.00000
      7      -7.3468      2.00000
      8      -3.4750      2.00000
      9       0.4435      2.00000
     10       0.5693      2.00000
     11       1.7376      2.00000
     12       2.9254      2.00000
     13       3.2112      0.58524
     14       3.3220      0.00023
     15       4.2784      0.00000
     16       4.5589      0.00000
     17       6.2155      0.00000
     18       6.2435      0.00000
     19       6.4730      0.00000
     20       9.0755      0.00000

 k-point     4 :       0.0000    0.0789    0.0000
  band No.  band energies     occupation 
      1     -19.2415      2.00000
      2     -19.2405      2.00000
      3     -19.2368      2.00000
      4     -19.2275      2.00000
      5     -19.1728      2.00000
      6      -9.0643      2.00000
      7      -7.3454      2.00000
      8      -3.4661      2.00000
      9       0.3224      2.00000
     10       0.5884      2.00000
     11       1.5366      2.00000
     12       2.8446      2.00000
     13       3.2003      0.81226
     14       3.4272      0.00000
     15       4.3402      0.00000
     16       4.7348      0.00000
     17       6.2091      0.00000
     18       6.2657      0.00000
     19       6.5964      0.00000
     20       9.2223      0.00000

 k-point     5 :       0.0000    0.1053    0.0000
  band No.  band energies     occupation 
      1     -19.2421      2.00000
      2     -19.2405      2.00000
      3     -19.2367      2.00000
      4     -19.2265      2.00000
      5     -19.1731      2.00000
      6      -9.0359      2.00000
      7      -7.3440      2.00000
      8      -3.4539      2.00000
      9       0.1765      2.00000
     10       0.6150      2.00000
     11       1.2965      2.00000
     12       2.7348      2.00000
     13       3.1847      1.16163
     14       3.5438      0.00000
     15       4.4104      0.00000
     16       4.9652      0.00000
     17       6.2092      0.00000
     18       6.2970      0.00000
     19       6.7641      0.00000
     20       9.4121      0.00000

 k-point     6 :       0.0000    0.1316    0.0000
  band No.  band energies     occupation 
      1     -19.2429      2.00000
      2     -19.2404      2.00000
      3     -19.2366      2.00000
      4     -19.2253      2.00000
      5     -19.1733      2.00000
      6      -8.9997      2.00000
      7      -7.3435      2.00000
      8      -3.4385      2.00000
      9       0.0186      2.00000
     10       0.6487      2.00000
     11       1.0356      2.00000
     12       2.5991      2.00000
     13       3.1640      1.56885
     14       3.6579      0.00000
     15       4.4897      0.00000
     16       5.2363      0.00000
     17       6.2206      0.00000
     18       6.3374      0.00000
     19       6.9686      0.00000
     20       9.6323      0.00000

 k-point     7 :       0.0000    0.1579    0.0000
  band No.  band energies     occupation 
      1     -19.2437      2.00000
      2     -19.2404      2.00000
      3     -19.2365      2.00000
      4     -19.2239      2.00000
      5     -19.1736      2.00000
      6      -8.9559      2.00000
      7      -7.3446      2.00000
      8      -3.4201      2.00000
      9      -0.1424      2.00000
     10       0.6893      2.00000
     11       0.7673      2.00000
     12       2.4415      2.00000
     13       3.1381      1.87166
     14       3.7627      0.00000
     15       4.5757      0.00000
     16       5.5391      0.00000
     17       6.2472      0.00000
     18       6.3870      0.00000
     19       7.1983      0.00000
     20       9.8654      0.00000

 k-point     8 :       0.0000    0.1842    0.0000
  band No.  band energies     occupation 
      1     -19.2445      2.00000
      2     -19.2403      2.00000
      3     -19.2364      2.00000
      4     -19.2224      2.00000
      5     -19.1740      2.00000
      6      -8.9048      2.00000
      7      -7.3483      2.00000
      8      -3.3988      2.00000
      9      -0.3013      2.00000
     10       0.5024      2.00000
     11       0.7364      2.00000
     12       2.2664      2.00000
     13       3.1066      1.98413
     14       3.8571      0.00000
     15       4.6654      0.00000
     16       5.8639      0.00000
     17       6.2932      0.00000
     18       6.4461      0.00000
     19       7.4388      0.00000
     20      10.0369      0.00000

 k-point     9 :       0.0000    0.2105    0.0000
  band No.  band energies     occupation 
      1     -19.2454      2.00000
      2     -19.2403      2.00000
      3     -19.2363      2.00000
      4     -19.2208      2.00000
      5     -19.1743      2.00000
      6      -8.8465      2.00000
      7      -7.3557      2.00000
      8      -3.3743      2.00000
      9      -0.4578      2.00000
     10       0.2515      2.00000
     11       0.7894      2.00000
     12       2.0782      2.00000
     13       3.0694      1.99947
     14       3.9430      0.00000
     15       4.7565      0.00000
     16       6.1819      0.00000
     17       6.3799      0.00000
     18       6.5148      0.00000
     19       7.6737      0.00000
     20       9.9434      0.00000

 k-point    10 :       0.0000    0.2368    0.0000
  band No.  band energies     occupation 
      1     -19.2463      2.00000
      2     -19.2402      2.00000
      3     -19.2362      2.00000
      4     -19.2191      2.00000
      5     -19.1747      2.00000
      6      -8.7816      2.00000
      7      -7.3680      2.00000
      8      -3.3462      2.00000
      9      -0.6169      2.00000
     10       0.0278      2.00000
     11       0.8477      2.00000
     12       1.8809      2.00000
     13       3.0264      2.00000
     14       4.0227      0.00000
     15       4.8477      0.00000
     16       6.3645      0.00000
     17       6.5933      0.00000
     18       6.6243      0.00000
     19       7.8877      0.00000
     20       9.7410      0.00000

 k-point    11 :       0.0000    0.2632    0.0000
  band No.  band energies     occupation 
      1     -19.2472      2.00000
      2     -19.2401      2.00000
      3     -19.2361      2.00000
      4     -19.2174      2.00000
      5     -19.1751      2.00000
      6      -8.7105      2.00000
      7      -7.3864      2.00000
      8      -3.3136      2.00000
      9      -0.7879      2.00000
     10      -0.1538      2.00000
     11       0.9105      2.00000
     12       1.6782      2.00000
     13       2.9780      2.00000
     14       4.0981      0.00000
     15       4.9382      0.00000
     16       6.4645      0.00000
     17       6.6816      0.00000
     18       6.9560      0.00000
     19       8.0724      0.00000
     20       9.5467      0.00000

 k-point    12 :       0.0000    0.2895    0.0000
  band No.  band energies     occupation 
      1     -19.2481      2.00000
      2     -19.2401      2.00000
      3     -19.2361      2.00000
      4     -19.2157      2.00000
      5     -19.1755      2.00000
      6      -8.6336      2.00000
      7      -7.4119      2.00000
      8      -3.2753      2.00000
      9      -0.9778      2.00000
     10      -0.2825      2.00000
     11       0.9768      2.00000
     12       1.4735      2.00000
     13       2.9248      2.00000
     14       4.1699      0.00000
     15       5.0274      0.00000
     16       6.5652      0.00000
     17       6.7800      0.00000
     18       7.2631      0.00000
     19       8.2341      0.00000
     20       9.3842      0.00000

 k-point    13 :       0.0000    0.3158    0.0000
  band No.  band energies     occupation 
      1     -19.2489      2.00000
      2     -19.2400      2.00000
      3     -19.2360      2.00000
      4     -19.2141      2.00000
      5     -19.1759      2.00000
      6      -8.5517      2.00000
      7      -7.4455      2.00000
      8      -3.2299      2.00000
      9      -1.1837      2.00000
     10      -0.3586      2.00000
     11       1.0453      2.00000
     12       1.2695      2.00000
     13       2.8678      2.00000
     14       4.2382      0.00000
     15       5.1145      0.00000
     16       6.6744      0.00000
     17       6.8886      0.00000
     18       7.4973      0.00000
     19       8.3919      0.00000
     20       9.2332      0.00000

 k-point    14 :       0.0000    0.3421    0.0000
  band No.  band energies     occupation 
      1     -19.2497      2.00000
      2     -19.2399      2.00000
      3     -19.2360      2.00000
      4     -19.2126      2.00000
      5     -19.1762      2.00000
      6      -8.4655      2.00000
      7      -7.4876      2.00000
      8      -3.1757      2.00000
      9      -1.3967      2.00000
     10      -0.3900      2.00000
     11       1.0687      2.00000
     12       1.1144      2.00000
     13       2.8084      2.00000
     14       4.3024      0.00000
     15       5.1981      0.00000
     16       6.7923      0.00000
     17       7.0073      0.00000
     18       7.6300      0.00000
     19       8.5384      0.00000
     20       9.0663      0.00000

 k-point    15 :       0.0000    0.3684    0.0000
  band No.  band energies     occupation 
      1     -19.2503      2.00000
      2     -19.2399      2.00000
      3     -19.2360      2.00000
      4     -19.2113      2.00000
      5     -19.1765      2.00000
      6      -8.3759      2.00000
      7      -7.5387      2.00000
      8      -3.1110      2.00000
      9      -1.6082      2.00000
     10      -0.3844      2.00000
     11       0.8733      2.00000
     12       1.1818      2.00000
     13       2.7488      2.00000
     14       4.3613      0.00000
     15       5.2763      0.00000
     16       6.9173      0.00000
     17       7.1361      0.00000
     18       7.6763      0.00000
     19       8.6065      0.00000
     20       8.9245      0.00000

 k-point    16 :       0.0000    0.3947    0.0000
  band No.  band energies     occupation 
      1     -19.2509      2.00000
      2     -19.2399      2.00000
      3     -19.2359      2.00000
      4     -19.2102      2.00000
      5     -19.1768      2.00000
      6      -8.2837      2.00000
      7      -7.5984      2.00000
      8      -3.0348      2.00000
      9      -1.8122      2.00000
     10      -0.3479      2.00000
     11       0.6853      2.00000
     12       1.2450      2.00000
     13       2.6917      2.00000
     14       4.4132      0.00000
[...]

 k-point   127 :       0.3421    0.3421    0.5000
  band No.  band energies     occupation 
      1     -19.2492      2.00000
      2     -19.2489      2.00000
      3     -19.2308      2.00000
      4     -19.2002      2.00000
      5     -19.1802      2.00000
      6      -7.6014      2.00000
      7      -7.5871      2.00000
      8      -3.0322      2.00000
      9      -2.9753      2.00000
     10      -0.3887      2.00000
     11      -0.1332      2.00000
     12       1.2252      2.00000
     13       1.3230      2.00000
     14       5.2981      0.00000
     15       5.3465      0.00000
     16       7.4386      0.00000
     17       7.6450      0.00000
     18       7.8299      0.00000
     19       7.8481      0.00000
     20       9.2361      0.00000

 k-point   128 :       0.3158    0.3158    0.5000
  band No.  band energies     occupation 
      1     -19.2486      2.00000
      2     -19.2482      2.00000
      3     -19.2313      2.00000
      4     -19.2028      2.00000
      5     -19.1794      2.00000
      6      -7.6857      2.00000
      7      -7.6806      2.00000
      8      -2.9241      2.00000
      9      -2.8543      2.00000
     10      -0.3476      2.00000
     11      -0.0515      2.00000
     12       1.4316      2.00000
     13       1.5698      2.00000
     14       5.1311      0.00000
     15       5.1524      0.00000
     16       7.5075      0.00000
     17       7.7337      0.00000
     18       7.8302      0.00000
     19       7.9078      0.00000
     20       8.9871      0.00000

 k-point   129 :       0.2895    0.2895    0.5000
  band No.  band energies     occupation 
      1     -19.2479      2.00000
      2     -19.2474      2.00000
      3     -19.2319      2.00000
      4     -19.2056      2.00000
      5     -19.1786      2.00000
      6      -7.7775      2.00000
      7      -7.7736      2.00000
      8      -2.8015      2.00000
      9      -2.7203      2.00000
     10      -0.2800      2.00000
     11       0.0569      2.00000
     12       1.6089      2.00000
     13       1.7976      2.00000
     14       4.9987      0.00000
     15       5.0241      0.00000
     16       7.5764      0.00000
     17       7.7390      0.00000
     18       7.8603      0.00000
     19       7.8858      0.00000
     20       8.7334      0.00000

 k-point   130 :       0.2632    0.2632    0.5000
  band No.  band energies     occupation 
      1     -19.2471      2.00000
      2     -19.2465      2.00000
      3     -19.2325      2.00000
      4     -19.2085      2.00000
      5     -19.1778      2.00000
      6      -7.8748      2.00000
      7      -7.8623      2.00000
      8      -2.6655      2.00000
      9      -2.5755      2.00000
     10      -0.1879      2.00000
     11       0.1896      2.00000
     12       1.7409      2.00000
     13       1.9917      2.00000
     14       4.8938      0.00000
     15       4.9876      0.00000
     16       7.5630      0.00000
     17       7.5892      0.00000
     18       7.7984      0.00000
     19       7.9645      0.00000
     20       8.5844      0.00000

 k-point   131 :       0.2368    0.2368    0.5000
  band No.  band energies     occupation 
      1     -19.2463      2.00000
      2     -19.2457      2.00000
      3     -19.2331      2.00000
      4     -19.2114      2.00000
      5     -19.1770      2.00000
      6      -7.9700      2.00000
      7      -7.9496      2.00000
      8      -2.5178      2.00000
      9      -2.4221      2.00000
     10      -0.0736      2.00000
     11       0.3436      2.00000
     12       1.8166      2.00000
     13       2.1377      2.00000
     14       4.8425      0.00000
     15       5.0243      0.00000
     16       7.3027      0.00000
     17       7.3479      0.00000
     18       7.8466      0.00000
     19       8.0630      0.00000
     20       8.4157      0.00000

 k-point   132 :       0.2105    0.2105    0.5000
  band No.  band energies     occupation 
      1     -19.2455      2.00000
      2     -19.2448      2.00000
      3     -19.2337      2.00000
      4     -19.2143      2.00000
      5     -19.1762      2.00000
      6      -8.0605      2.00000
      7      -8.0330      2.00000
      8      -2.3605      2.00000
      9      -2.2627      2.00000
     10       0.0596      2.00000
     11       0.5145      2.00000
     12       1.8358      2.00000
     13       2.2271      2.00000
     14       4.8396      0.00000
     15       5.1225      0.00000
     16       6.9599      0.00000
     17       7.0473      0.00000
     18       7.9470      0.00000
     19       8.0141      0.00000
     20       8.2978      0.00000

 k-point   133 :       0.1842    0.1842    0.5000
  band No.  band energies     occupation 
      1     -19.2446      2.00000
      2     -19.2440      2.00000
      3     -19.2343      2.00000
      4     -19.2172      2.00000
      5     -19.1754      2.00000
      6      -8.1446      2.00000
      7      -8.1109      2.00000
      8      -2.1965      2.00000
      9      -2.1008      2.00000
     10       0.2081      2.00000
     11       0.6959      2.00000
     12       1.8098      2.00000
     13       2.2619      2.00000
     14       4.8632      0.00000
     15       5.2528      0.00000
     16       6.6240      0.00000
     17       6.7206      0.00000
     18       7.8054      0.00000
     19       8.0574      0.00000
     20       8.3338      0.00000

 k-point   134 :       0.1579    0.1579    0.5000
  band No.  band energies     occupation 
      1     -19.2438      2.00000
      2     -19.2433      2.00000
      3     -19.2348      2.00000
      4     -19.2199      2.00000
      5     -19.1747      2.00000
      6      -8.2206      2.00000
      7      -8.1814      2.00000
      8      -2.0294      2.00000
      9      -1.9402      2.00000
     10       0.3665      2.00000
     11       0.8756      2.00000
     12       1.7602      2.00000
     13       2.2535      2.00000
     14       4.8730      0.00000
     15       5.3686      0.00000
     16       6.3363      0.00000
     17       6.3934      0.00000
     18       7.6542      0.00000
     19       8.1641      0.00000
     20       8.2543      0.00000

 k-point   135 :       0.1316    0.1316    0.5000
  band No.  band energies     occupation 
      1     -19.2430      2.00000
      2     -19.2425      2.00000
      3     -19.2354      2.00000
      4     -19.2223      2.00000
      5     -19.1741      2.00000
      6      -8.2871      2.00000
      7      -8.2433      2.00000
      8      -1.8641      2.00000
      9      -1.7860      2.00000
     10       0.5278      2.00000
     11       1.0290      2.00000
     12       1.7212      2.00000
     13       2.2187      2.00000
     14       4.8235      0.00000
     15       5.4150      0.00000
     16       6.0905      0.00000
     17       6.1283      0.00000
     18       7.6241      0.00000
     19       8.1960      0.00000
     20       8.2922      0.00000

 k-point   136 :       0.1053    0.1053    0.5000
  band No.  band energies     occupation 
      1     -19.2423      2.00000
      2     -19.2419      2.00000
      3     -19.2359      2.00000
      4     -19.2245      2.00000
      5     -19.1735      2.00000
      6      -8.3429      2.00000
      7      -8.2954      2.00000
      8      -1.7071      2.00000
      9      -1.6442      2.00000
     10       0.6826      2.00000
     11       1.1138      2.00000
     12       1.7410      2.00000
     13       2.1751      2.00000
     14       4.6971      0.00000
     15       5.3488      0.00000
     16       5.8478      0.00000
     17       6.0061      0.00000
     18       7.7318      0.00000
     19       8.2321      0.00000
     20       8.3875      0.00000

 k-point   137 :       0.0789    0.0789    0.5000
  band No.  band energies     occupation 
      1     -19.2417      2.00000
      2     -19.2414      2.00000
      3     -19.2363      2.00000
      4     -19.2263      2.00000
      5     -19.1731      2.00000
      6      -8.3872      2.00000
      7      -8.3368      2.00000
      8      -1.5670      2.00000
      9      -1.5218      2.00000
     10       0.8188      2.00000
     11       1.1130      2.00000
     12       1.8382      2.00000
     13       2.1373      2.00000
     14       4.5247      0.00000
     15       5.1807      0.00000
     16       5.6886      0.00000
     17       5.9415      0.00000
     18       7.9489      0.00000
     19       8.3464      0.00000
     20       8.4728      0.00000

 k-point   138 :       0.0526    0.0526    0.5000
  band No.  band energies     occupation 
      1     -19.2411      2.00000
      2     -19.2410      2.00000
      3     -19.2366      2.00000
      4     -19.2277      2.00000
      5     -19.1728      2.00000
      6      -8.4192      2.00000
      7      -8.3669      2.00000
      8      -1.4541      2.00000
      9      -1.4265      2.00000
     10       0.9240      2.00000
     11       1.0693      2.00000
     12       1.9655      2.00000
     13       2.1147      2.00000
     14       4.3565      0.00000
     15       4.9890      0.00000
     16       5.5895      0.00000
     17       5.9048      0.00000
     18       8.2208      0.00000
     19       8.5178      0.00000
     20       8.5550      0.00000

 k-point   139 :       0.0263    0.0263    0.5000
  band No.  band energies     occupation 
      1     -19.2408      2.00000
      2     -19.2407      2.00000
      3     -19.2368      2.00000
      4     -19.2286      2.00000
      5     -19.1726      2.00000
      6      -8.4387      2.00000
      7      -8.3851      2.00000
      8      -1.3800      2.00000
      9      -1.3657      2.00000
     10       0.9891      2.00000
     11       1.0273      2.00000
     12       2.0675      2.00000
     13       2.1071      2.00000
     14       4.2356      0.00000
     15       4.8453      0.00000
     16       5.5315      0.00000
     17       5.8835      0.00000
     18       8.4740      0.00000
     19       8.5745      0.00000
     20       8.7785      0.00000

 k-point   140 :       0.0000    0.0000    0.5000
  band No.  band energies     occupation 
      1     -19.2406      2.00000
      2     -19.2406      2.00000
      3     -19.2369      2.00000
      4     -19.2289      2.00000
      5     -19.1726      2.00000
      6      -8.4452      2.00000
      7      -8.3912      2.00000
      8      -1.3540      2.00000
      9      -1.3447      2.00000
     10       1.0108      2.00000
     11       1.0108      2.00000
     12       2.1062      2.00000
     13       2.1063      2.00000
     14       4.1916      0.00000
     15       4.7923      0.00000
     16       5.5120      0.00000
     17       5.8762      0.00000
     18       8.5891      0.00000
     19       8.5893      0.00000
     20       8.9622      0.00000


--------------------------------------------------------------------------------------------------------


 soft charge-density along one line, spin component           1
         0         1         2         3         4         5         6         7         8         9
 total charge-density along one line
 
 pseudopotential strength for first ion, spin component:           1
  5.671   6.785  -0.000   0.000   0.000  -0.000  -0.000   0.000
  6.785   8.108  -0.000   0.000   0.000  -0.000  -0.000   0.000
 -0.000  -0.000   1.273  -0.000  -0.000   2.126  -0.000  -0.000
  0.000   0.000  -0.000   1.277  -0.000  -0.000   2.133  -0.000
  0.000   0.000  -0.000  -0.000   1.275  -0.000  -0.000   2.130
 -0.000  -0.000   2.126  -0.000  -0.000   3.565  -0.000  -0.000
 -0.000  -0.000  -0.000   2.133  -0.000  -0.000   3.578  -0.000
  0.000   0.000  -0.000  -0.000   2.130  -0.000  -0.000   3.573
 -0.000  -0.000   0.000   0.000  -0.000   0.000   0.000  -0.000
 -0.000  -0.000  -0.001  -0.000   0.000  -0.002  -0.000   0.000
  0.005   0.006   0.000   0.001  -0.000   0.000   0.002  -0.000
 -0.000  -0.000   0.000   0.000   0.003   0.000   0.000   0.006
  0.004   0.004   0.000   0.002   0.000   0.000   0.004   0.000
 total augmentation occupancy for first ion, spin component:           1
  4.175  -1.594   0.000   0.026  -0.000   0.000  -0.009   0.000   0.000  -0.000  -0.009   0.000  -0.030
 -1.594   0.843   0.000   0.015   0.000   0.000   0.000   0.000   0.000   0.000   0.000   0.000   0.021
  0.000   0.000   2.177   0.000   0.000  -0.455   0.000   0.000   0.000  -0.221  -0.000   0.000  -0.000
  0.026   0.015   0.000   1.814  -0.000   0.000  -0.394  -0.000   0.000   0.000   0.032   0.000   0.208
  0.000  -0.000   0.000  -0.000   1.931   0.000  -0.000  -0.374   0.000   0.000   0.000   0.200   0.000
  0.000   0.000  -0.455   0.000   0.000   0.102   0.000   0.000   0.000   0.047   0.000   0.000   0.000
 -0.009   0.000   0.000  -0.394   0.000   0.000   0.094   0.000   0.000  -0.000  -0.006   0.000  -0.045
  0.000  -0.000   0.000   0.000  -0.374   0.000  -0.000   0.082   0.000   0.000   0.000  -0.038   0.000
  0.000   0.000   0.000   0.000  -0.000   0.000   0.000   0.000   0.009   0.000   0.000   0.000   0.000
 -0.000   0.000  -0.221   0.000   0.000   0.047   0.000   0.000   0.000   0.041  -0.000   0.000   0.000
 -0.009   0.000  -0.000   0.032   0.000  -0.000  -0.006   0.000   0.000  -0.000   0.009   0.000   0.005
  0.000   0.000   0.000   0.000   0.200   0.000   0.000  -0.038   0.000   0.000   0.000   0.037   0.000
 -0.030   0.021  -0.000   0.208   0.000   0.000  -0.045   0.000   0.000   0.000   0.005   0.000   0.040


------------------------ aborting loop because EDIFF is reached ----------------------------------------


 


 total charge     
 
# of ion       s       p       d       tot
------------------------------------------
    1        1.123   1.031   0.092   2.246
    2        1.133   1.007   0.097   2.237
    3        1.461   1.624   9.901  12.986
    4        1.249   1.500   0.022   2.771
--------------------------------------------------
tot          4.965   5.162  10.112  20.240
 
    CHARGE:  cpu time    0.0447: real time    0.0447
    FORLOC:  cpu time    0.0007: real time    0.0007
    FORNL :  cpu time    0.1559: real time    0.1560
    STRESS:  cpu time    0.6426: real time    0.6434
    FORCOR:  cpu time    0.0089: real time    0.0098
    FORHAR:  cpu time    0.0027: real time    0.0027
    MIXING:  cpu time    0.0006: real time    0.0006
    OFIELD:  cpu time    0.0001: real time    0.0001

  FORCE on cell =-STRESS in cart. coord.  units (eV):
  Direction    XX          YY          ZZ          XY          YZ          ZX
  --------------------------------------------------------------------------------------
  Alpha Z    64.20129    64.20129    64.20129
  Ewald    -439.74121  -439.74123  -560.43629     0.00000     0.00000    -0.00000
  Hartree   290.75213   290.75213   173.45254    -0.00000    -0.00000    -0.00000
  E(xc)    -113.32096  -113.32096  -112.99765    -0.00000     0.00000    -0.00000
  Local    -322.09695  -322.09694   -79.40616    -0.00000    -0.00000    -0.00000
  n-local   159.28797   155.23199   154.84101    -0.24304    -0.00000     0.00000
  augment   138.78998   138.78998   139.69748     0.00000     0.00000     0.00000
  Kinetic   232.06071   224.04179   221.08150    -0.70835    -0.00000    -0.00000
  Fock        0.00000     0.00000     0.00000     0.00000     0.00000     0.00000
  -------------------------------------------------------------------------------------
  Total       3.89550     3.89550     0.43371     0.00000     0.00000     0.00000
  in kB      54.91945    54.91945     6.11458     0.00000     0.00000     0.00000
  external pressure =       38.65 kB  Pullay stress =        0.00 kB


 VOLUME and BASIS-vectors are now :
 -----------------------------------------------------------------------------
  energy-cutoff  :      500.00
  volume of cell :      113.64
      direct lattice vectors                 reciprocal lattice vectors
     4.300140858  0.000000000  0.000000000     0.232550522  0.000000000  0.000000000
     0.000000000  4.300140858  0.000000000     0.000000000  0.232550522  0.000000000
     0.000000000  0.000000000  6.145861149     0.000000000  0.000000000  0.162711128

  length of vectors
     4.300140858  4.300140858  6.145861149     0.232550522  0.232550522  0.162711128


 FORCES acting on ions
    electron-ion (+dipol)            ewald-force                    non-local-force                 convergence-correction
 -----------------------------------------------------------------------------------------------
   -.624E-14 -.140E-13 0.474E+02   0.261E-14 -.178E-15 -.473E+02   0.000E+00 0.000E+00 -.311E+00   -.914E-15 0.267E-15 -.384E-03
   0.325E-14 -.116E-13 -.474E+02   -.168E-14 -.547E-14 0.473E+02   0.000E+00 0.265E-22 0.311E+00   -.322E-14 0.457E-15 0.384E-03
   -.249E-13 0.136E-13 0.737E-06   -.341E-14 0.631E-14 0.425E-05   0.000E+00 0.000E+00 0.000E+00   -.722E-13 -.747E-14 -.474E-07
   0.948E-14 0.364E-12 0.933E-07   0.139E-14 0.780E-16 0.515E-06   -.662E-23 0.000E+00 0.000E+00   -.222E-14 -.619E-15 0.136E-07
 -----------------------------------------------------------------------------------------------
   -.184E-13 0.352E-12 0.346E-06   -.109E-14 0.740E-15 -.355E-14   -.662E-23 0.265E-22 0.000E+00   -.786E-13 -.737E-14 -.320E-07
 
 
 POSITION                                       TOTAL-FORCE (eV/Angst)
 -----------------------------------------------------------------------------------
      2.15007      0.00000      4.46027        -0.000000      0.000000     -0.215771
      0.00000      2.15007      1.68559        -0.000000      0.000000      0.215771
      0.00000      0.00000      0.00000        -0.000000      0.000000      0.000000
      2.15007      2.15007      3.07293         0.000000     -0.000000      0.000000
 -----------------------------------------------------------------------------------
    total drift:                               -0.000000      0.000000      0.000000


--------------------------------------------------------------------------------------------------------



  FREE ENERGIE OF THE ION-ELECTRON SYSTEM (eV)
  ---------------------------------------------------
  free  energy   TOTEN  =       -13.16646533 eV

  energy  without entropy=      -13.16312131  energy(sigma->0) =      -13.16479332
 


--------------------------------------------------------------------------------------------------------


    POTLOK:  cpu time    0.0108: real time    0.0109


--------------------------------------------------------------------------------------------------------


     LOOP+:  cpu time   12.6747: real time   12.7047
    4ORBIT:  cpu time    0.0000: real time    0.0000
 


 total charge     
 
# of ion       s       p       d       tot
------------------------------------------
    1        1.123   1.031   0.092   2.246
    2        1.133   1.007   0.097   2.237
    3        1.461   1.624   9.901  12.986
    4        1.249   1.500   0.022   2.771
--------------------------------------------------
tot          4.965   5.162  10.112  20.240
 

 total amount of memory used by VASP MPI-rank0    59724. kBytes
=======================================================================

   base      :      30000. kBytes
   nonl-proj :      23491. kBytes
   fftplans  :        603. kBytes
   grid      :       1046. kBytes
   one-center:         15. kBytes
   wavefun   :       4569. kBytes
 
  
  
 General timing and accounting informations for this job:
 ========================================================
  
                  Total CPU time used (sec):       14.796
                            User time (sec):       14.398
                          System time (sec):        0.397
                         Elapsed time (sec):       14.874
  
                   Maximum memory used (kb):       89236.
                   Average memory used (kb):           0.
  
                          Minor page faults:        16580
                          Major page faults:            2
                 Voluntary context switches:          576
