PROCAR lm decomposed
# of k-points:  140         # of bands:   20         # of ions:    4

 k-point     1 :    0.00000000 0.00000000 0.00000000     weight = 0.00714286

band     1 # energy  -19.24052932 # occ.  2.00000000
 
ion      s     py     pz     px    dxy    dyz    dz2    dxz  x2-y2    tot
    1  0.000  0.000  0.000  0.002  0.000  0.000  0.000  0.001  0.000  0.002
    2  0.000  0.000  0.000  0.000  0.000  0.000  0.000  0.000  0.000  0.000
    3  0.000  0.000  0.000  0.000  0.000  0.000  0.000  0.986  0.000  0.986
    4  0.000  0.000  0.000  0.000  0.000  0.000  0.000  0.000  0.000  0.000
tot    0.000  0.000  0.000  0.002  0.000  0.000  0.000  0.986  0.000  0.988
 
band     2 # energy  -19.24052924 # occ.  2.00000000
 
ion      s     py     pz     px    dxy    dyz    dz2    dxz  x2-y2    tot
    1  0.000  0.000  0.000  0.000  0.000  0.000  0.000  0.000  0.000  0.000
    2  0.000  0.002  0.000  0.000  0.000  0.001  0.000  0.000  0.000  0.002
    3  0.000  0.000  0.000  0.000  0.000  0.986  0.000  0.000  0.000  0.986
    4  0.000  0.000  0.000  0.000  0.000  0.000  0.000  0.000  0.000  0.000
tot    0.000  0.002  0.000  0.000  0.000  0.986  0.000  0.000  0.000  0.988
 
band     3 # energy  -19.23709172 # occ.  2.00000000
 
ion      s     py     pz     px    dxy    dyz    dz2    dxz  x2-y2    tot
    1  0.000  0.000  0.000  0.000  0.000  0.000  0.000  0.000  0.000  0.000
    2  0.000  0.000  0.000  0.000  0.000  0.000  0.000  0.000  0.000  0.000
    3  0.000  0.000  0.000  0.000  0.000  0.000  0.986  0.000  0.000  0.986
    4  0.000  0.000  0.000  0.000  0.000  0.000  0.000  0.000  0.000  0.000
tot    0.000  0.000  0.000  0.000  0.000  0.000  0.986  0.000  0.000  0.987
 
band     4 # energy  -19.22883813 # occ.  2.00000000
 
ion      s     py     pz     px    dxy    dyz    dz2    dxz  x2-y2    tot
    1  0.001  0.000  0.001  0.000  0.000  0.000  0.000  0.000  0.000  0.002
    2  0.001  0.000  0.001  0.000  0.000  0.000  0.000  0.000  0.000  0.002
    3  0.000  0.000  0.000  0.000  0.000  0.000  0.000  0.000  0.984  0.984
    4  0.000  0.000  0.000  0.000  0.000  0.000  0.000  0.000  0.000  0.000
tot    0.002  0.000  0.001  0.000  0.000  0.000  0.000  0.000  0.984  0.987
 
band     5 # energy  -19.17253504 # occ.  2.00000000
 
ion      s     py     pz     px    dxy    dyz    dz2    dxz  x2-y2    tot
    1  0.000  0.000  0.000  0.000  0.000  0.000  0.000  0.000  0.000  0.000
    2  0.000  0.000  0.000  0.000  0.000  0.000  0.000  0.000  0.000  0.000
    3  0.000  0.000  0.000  0.000  0.987  0.000  0.000  0.000  0.000  0.987
    4  0.000  0.000  0.000  0.000  0.000  0.000  0.000  0.000  0.000  0.000
tot    0.000  0.000  0.000  0.000  0.987  0.000  0.000  0.000  0.000  0.987
 
band     6 # energy   -9.10093144 # occ.  2.00000000
 
ion      s     py     pz     px    dxy    dyz    dz2    dxz  x2-y2    tot
    1  0.098  0.000  0.000  0.000  0.000  0.000  0.000  0.000  0.000  0.098
    2  0.098  0.000  0.000  0.000  0.000  0.000  0.000  0.000  0.000  0.098
    3  0.281  0.000  0.000  0.000  0.000  0.000  0.000  0.000  0.000  0.281
    4  0.207  0.000  0.000  0.000  0.000  0.000  0.000  0.000  0.000  0.207
tot    0.683  0.000  0.000  0.000  0.000  0.000  0.000  0.000  0.000  0.684
 
band     7 # energy   -7.34821357 # occ.  2.00000000
 
ion      s     py     pz     px    dxy    dyz    dz2    dxz  x2-y2    tot
    1  0.001  0.000  0.031  0.000  0.000  0.000  0.000  0.000  0.005  0.038
    2  0.001  0.000  0.031  0.000  0.000  0.000  0.000  0.000  0.005  0.038
    3  0.351  0.000  0.000  0.000  0.000  0.000  0.000  0.000  0.000  0.351
    4  0.315  0.000  0.000  0.000  0.000  0.000  0.000  0.000  0.000  0.315
tot    0.668  0.000  0.063  0.000  0.000  0.000  0.000  0.000  0.010  0.741
 
band     8 # energy   -3.48228458 # occ.  2.00000000
 
ion      s     py     pz     px    dxy    dyz    dz2    dxz  x2-y2    tot
    1  0.275  0.000  0.001  0.000  0.000  0.000  0.001  0.000  0.000  0.277
    2  0.275  0.000  0.001  0.000  0.000  0.000  0.001  0.000  0.000  0.277
    3  0.000  0.000  0.076  0.000  0.000  0.000  0.000  0.000  0.004  0.081
    4  0.000  0.000  0.061  0.000  0.000  0.000  0.000  0.000  0.002  0.063
tot    0.550  0.000  0.138  0.000  0.000  0.000  0.002  0.000  0.007  0.697
 
band     9 # energy    0.55391805 # occ.  2.00000000
 
ion      s     py     pz     px    dxy    dyz    dz2    dxz  x2-y2    tot
    1  0.000  0.000  0.000  0.087  0.000  0.000  0.000  0.000  0.000  0.087
    2  0.000  0.000  0.000  0.163  0.000  0.000  0.000  0.008  0.000  0.171
    3  0.000  0.000  0.000  0.086  0.000  0.000  0.000  0.000  0.000  0.086
    4  0.000  0.000  0.000  0.223  0.000  0.000  0.000  0.001  0.000  0.224
tot    0.000  0.000  0.000  0.559  0.000  0.000  0.000  0.009  0.000  0.568
 
band    10 # energy    0.55391832 # occ.  2.00000000
 
ion      s     py     pz     px    dxy    dyz    dz2    dxz  x2-y2    tot
    1  0.000  0.163  0.000  0.000  0.000  0.008  0.000  0.000  0.000  0.171
    2  0.000  0.087  0.000  0.000  0.000  0.000  0.000  0.000  0.000  0.087
    3  0.000  0.086  0.000  0.000  0.000  0.000  0.000  0.000  0.000  0.086
    4  0.000  0.223  0.000  0.000  0.000  0.001  0.000  0.000  0.000  0.224
tot    0.000  0.559  0.000  0.000  0.000  0.009  0.000  0.000  0.000  0.568
 
band    11 # energy    1.92508245 # occ.  2.00000000
 
ion      s     py     pz     px    dxy    dyz    dz2    dxz  x2-y2    tot
    1  0.253  0.000  0.000  0.000  0.000  0.000  0.000  0.000  0.001  0.255
    2  0.253  0.000  0.000  0.000  0.000  0.000  0.000  0.000  0.001  0.255
    3  0.133  0.000  0.000  0.000  0.000  0.000  0.001  0.000  0.000  0.134
    4  0.176  0.000  0.000  0.000  0.000  0.000  0.000  0.000  0.000  0.176
tot    0.816  0.000  0.001  0.000  0.000  0.000  0.001  0.000  0.003  0.821
 
band    12 # energy    2.99147845 # occ.  1.99999999
 
ion      s     py     pz     px    dxy    dyz    dz2    dxz  x2-y2    tot
    1  0.000  0.000  0.067  0.000  0.000  0.000  0.001  0.000  0.027  0.095
    2  0.000  0.000  0.067  0.000  0.000  0.000  0.001  0.000  0.027  0.095
    3  0.000  0.000  0.210  0.000  0.000  0.000  0.000  0.000  0.004  0.215
    4  0.000  0.000  0.250  0.000  0.000  0.000  0.000  0.000  0.002  0.252
tot    0.001  0.000  0.594  0.000  0.000  0.000  0.001  0.000  0.060  0.656
 
band    13 # energy    3.21972603 # occ.  0.43093420
 
ion      s     py     pz     px    dxy    dyz    dz2    dxz  x2-y2    tot
    1  0.000  0.000  0.000  0.110  0.000  0.000  0.000  0.027  0.000  0.138
    2  0.000  0.000  0.000  0.034  0.000  0.000  0.000  0.024  0.000  0.058
    3  0.000  0.000  0.000  0.328  0.000  0.000  0.000  0.005  0.000  0.333
    4  0.000  0.000  0.000  0.138  0.000  0.000  0.000  0.002  0.000  0.140
tot    0.000  0.000  0.000  0.609  0.000  0.000  0.000  0.058  0.000  0.668
 
band    14 # energy    3.21972662 # occ.  0.43092440
 
ion      s     py     pz     px    dxy    dyz    dz2    dxz  x2-y2    tot
    1  0.000  0.034  0.000  0.000  0.000  0.024  0.000  0.000  0.000  0.058
    2  0.000  0.110  0.000  0.000  0.000  0.027  0.000  0.000  0.000  0.138
    3  0.000  0.328  0.000  0.000  0.000  0.005  0.000  0.000  0.000  0.333
    4  0.000  0.138  0.000  0.000  0.000  0.002  0.000  0.000  0.000  0.140
tot    0.000  0.609  0.000  0.000  0.000  0.058  0.000  0.000  0.000  0.668
 
band    15 # energy    4.20436597 # occ.  0.00000000
 
ion      s     py     pz     px    dxy    dyz    dz2    dxz  x2-y2    tot
    1  0.096  0.000  0.020  0.000  0.000  0.000  0.019  0.000  0.000  0.136
    2  0.096  0.000  0.020  0.000  0.000  0.000  0.019  0.000  0.000  0.136
    3  0.000  0.000  0.064  0.000  0.000  0.000  0.000  0.000  0.012  0.076
    4  0.000  0.000  0.068  0.000  0.000  0.000  0.000  0.000  0.024  0.092
tot    0.193  0.000  0.172  0.000  0.000  0.000  0.038  0.000  0.037  0.440
 
band    16 # energy    4.42093217 # occ.  0.00000000
 
ion      s     py     pz     px    dxy    dyz    dz2    dxz  x2-y2    tot
    1  0.006  0.000  0.111  0.000  0.000  0.000  0.000  0.000  0.018  0.134
    2  0.006  0.000  0.111  0.000  0.000  0.000  0.000  0.000  0.018  0.134
    3  0.060  0.000  0.000  0.000  0.000  0.000  0.020  0.000  0.000  0.080
    4  0.014  0.000  0.000  0.000  0.000  0.000  0.014  0.000  0.000  0.028
tot    0.085  0.000  0.222  0.000  0.000  0.000  0.034  0.000  0.035  0.377
 
band    17 # energy    6.22570808 # occ.  0.00000000
 
ion      s     py     pz     px    dxy    dyz    dz2    dxz  x2-y2    tot
    1  0.000  0.216  0.000  0.000  0.000  0.010  0.000  0.000  0.000  0.226
    2  0.000  0.220  0.000  0.000  0.000  0.004  0.000  0.000  0.000  0.224
    3  0.000  0.032  0.000  0.000  0.000  0.033  0.000  0.000  0.000  0.065
    4  0.000  0.020  0.000  0.000  0.000  0.025  0.000  0.000  0.000  0.046
tot    0.000  0.488  0.000  0.000  0.000  0.072  0.000  0.000  0.000  0.560
 
band    18 # energy    6.22570843 # occ.  0.00000000
 
ion      s     py     pz     px    dxy    dyz    dz2    dxz  x2-y2    tot
    1  0.000  0.000  0.000  0.220  0.000  0.000  0.000  0.004  0.000  0.224
    2  0.000  0.000  0.000  0.216  0.000  0.000  0.000  0.010  0.000  0.226
    3  0.000  0.000  0.000  0.032  0.000  0.000  0.000  0.033  0.000  0.065
    4  0.000  0.000  0.000  0.020  0.000  0.000  0.000  0.025  0.000  0.046
tot    0.000  0.000  0.000  0.488  0.000  0.000  0.000  0.072  0.000  0.560
 
band    19 # energy    6.37275424 # occ.  0.00000000
 
ion      s     py     pz     px    dxy    dyz    dz2    dxz  x2-y2    tot
    1  0.001  0.000  0.198  0.000  0.000  0.000  0.003  0.000  0.007  0.209
    2  0.001  0.000  0.198  0.000  0.000  0.000  0.003  0.000  0.007  0.209
    3  0.000  0.000  0.050  0.000  0.000  0.000  0.000  0.000  0.055  0.105
    4  0.000  0.000  0.009  0.000  0.000  0.000  0.000  0.000  0.013  0.022
tot    0.003  0.000  0.455  0.000  0.000  0.000  0.005  0.000  0.081  0.544
 
band    20 # energy    8.95013167 # occ.  0.00000000
 
ion      s     py     pz     px    dxy    dyz    dz2    dxz  x2-y2    tot
    1  0.074  0.000  0.006  0.000  0.000  0.000  0.000  0.000  0.000  0.081
    2  0.074  0.000  0.006  0.000  0.000  0.000  0.000  0.000  0.000  0.081
    3  0.021  0.000  0.000  0.000  0.000  0.000  0.001  0.000  0.000  0.022
    4  0.019  0.000  0.000  0.000  0.000  0.000  0.000  0.000  0.000  0.019
tot    0.188  0.000  0.013  0.000  0.000  0.000  0.001  0.000  0.001  0.203
 

 k-point     2 :    0.00000000 0.02631579 0.00000000     weight = 0.00714286

band     1 # energy  -19.24064712 # occ.  2.00000000
 
ion      s     py     pz     px    dxy    dyz    dz2    dxz  x2-y2    tot
    1  0.000  0.000  0.000  0.000  0.000  0.000  0.000  0.000  0.000  0.000
    2  0.000  0.002  0.000  0.000  0.000  0.001  0.000  0.000  0.000  0.002
    3  0.000  0.000  0.000  0.000  0.000  0.980  0.003  0.000  0.002  0.986
    4  0.000  0.000  0.000  0.000  0.000  0.000  0.000  0.000  0.000  0.000
tot    0.000  0.002  0.000  0.000  0.000  0.981  0.003  0.000  0.002  0.988
 
band     2 # energy  -19.24052538 # occ.  2.00000000
 
ion      s     py     pz     px    dxy    dyz    dz2    dxz  x2-y2    tot
    1  0.000  0.000  0.000  0.002  0.000  0.000  0.000  0.001  0.000  0.002
    2  0.000  0.000  0.000  0.000  0.000  0.000  0.000  0.000  0.000  0.000
    3  0.000  0.000  0.000  0.000  0.000  0.000  0.000  0.986  0.000  0.986
    4  0.000  0.000  0.000  0.000  0.000  0.000  0.000  0.000  0.000  0.000
tot    0.000  0.000  0.000  0.002  0.000  0.000  0.000  0.986  0.000  0.988
 
band     3 # energy  -19.23705956 # occ.  2.00000000
 
ion      s     py     pz     px    dxy    dyz    dz2    dxz  x2-y2    tot
    1  0.000  0.000  0.000  0.000  0.000  0.000  0.000  0.000  0.000  0.000
    2  0.000  0.000  0.000  0.000  0.000  0.000  0.000  0.000  0.000  0.000
    3  0.000  0.000  0.000  0.000  0.000  0.003  0.983  0.000  0.000  0.986
    4  0.000  0.000  0.000  0.000  0.000  0.000  0.000  0.000  0.000  0.000
tot    0.000  0.000  0.000  0.000  0.000  0.003  0.983  0.000  0.000  0.987
 
band     4 # energy  -19.22868586 # occ.  2.00000000
 
ion      s     py     pz     px    dxy    dyz    dz2    dxz  x2-y2    tot
    1  0.001  0.000  0.001  0.000  0.000  0.000  0.000  0.000  0.000  0.002
    2  0.001  0.000  0.001  0.000  0.000  0.000  0.000  0.000  0.000  0.002
    3  0.000  0.000  0.000  0.000  0.000  0.002  0.000  0.000  0.981  0.984
    4  0.000  0.000  0.000  0.000  0.000  0.000  0.000  0.000  0.000  0.000
tot    0.002  0.000  0.001  0.000  0.000  0.002  0.000  0.000  0.981  0.987
 
band     5 # energy  -19.17258261 # occ.  2.00000000
 
ion      s     py     pz     px    dxy    dyz    dz2    dxz  x2-y2    tot
    1  0.000  0.000  0.000  0.000  0.000  0.000  0.000  0.000  0.000  0.000
    2  0.000  0.000  0.000  0.000  0.000  0.000  0.000  0.000  0.000  0.000
    3  0.000  0.000  0.000  0.000  0.987  0.000  0.000  0.000  0.000  0.987
    4  0.000  0.000  0.000  0.000  0.000  0.000  0.000  0.000  0.000  0.000
tot    0.000  0.000  0.000  0.000  0.987  0.000  0.000  0.000  0.000  0.987
 
band     6 # energy   -9.09685465 # occ.  2.00000000
 
ion      s     py     pz     px    dxy    dyz    dz2    dxz  x2-y2    tot
    1  0.098  0.000  0.000  0.000  0.000  0.000  0.000  0.000  0.000  0.098
    2  0.098  0.000  0.000  0.000  0.000  0.000  0.000  0.000  0.000  0.098
    3  0.281  0.000  0.000  0.000  0.000  0.000  0.000  0.000  0.000  0.281
    4  0.207  0.000  0.000  0.000  0.000  0.000  0.000  0.000  0.000  0.207
tot    0.683  0.000  0.000  0.000  0.000  0.000  0.000  0.000  0.000  0.684
 
band     7 # energy   -7.34783041 # occ.  2.00000000
 
ion      s     py     pz     px    dxy    dyz    dz2    dxz  x2-y2    tot
    1  0.001  0.000  0.031  0.000  0.000  0.000  0.000  0.000  0.005  0.038
    2  0.001  0.000  0.031  0.000  0.000  0.000  0.000  0.000  0.005  0.038
    3  0.351  0.000  0.000  0.000  0.000  0.000  0.000  0.000  0.000  0.351
    4  0.315  0.000  0.000  0.000  0.000  0.000  0.000  0.000  0.000  0.315
tot    0.668  0.000  0.063  0.000  0.000  0.000  0.000  0.000  0.010  0.741
 
band     8 # energy   -3.48046128 # occ.  2.00000000
 
ion      s     py     pz     px    dxy    dyz    dz2    dxz  x2-y2    tot
    1  0.275  0.000  0.000  0.000  0.000  0.000  0.001  0.000  0.000  0.277
    2  0.275  0.000  0.001  0.000  0.000  0.000  0.001  0.000  0.000  0.277
    3  0.000  0.000  0.076  0.000  0.000  0.000  0.000  0.000  0.004  0.081
    4  0.000  0.000  0.061  0.000  0.000  0.000  0.000  0.000  0.002  0.063
tot    0.550  0.000  0.138  0.000  0.000  0.000  0.002  0.000  0.007  0.697
 
band     9 # energy    0.52498173 # occ.  2.00000000
 
ion      s     py     pz     px    dxy    dyz    dz2    dxz  x2-y2    tot
    1  0.002  0.161  0.001  0.000  0.000  0.008  0.000  0.000  0.000  0.172
    2  0.000  0.085  0.000  0.000  0.000  0.000  0.000  0.000  0.000  0.086
    3  0.000  0.083  0.001  0.000  0.000  0.000  0.000  0.000  0.000  0.084
    4  0.001  0.221  0.001  0.000  0.000  0.001  0.000  0.000  0.000  0.224
tot    0.004  0.550  0.003  0.000  0.000  0.009  0.000  0.000  0.000  0.566
 
band    10 # energy    0.55777221 # occ.  2.00000000
 
ion      s     py     pz     px    dxy    dyz    dz2    dxz  x2-y2    tot
    1  0.000  0.000  0.000  0.087  0.000  0.000  0.000  0.000  0.000  0.087
    2  0.000  0.000  0.000  0.163  0.000  0.000  0.000  0.008  0.000  0.171
    3  0.000  0.000  0.000  0.086  0.000  0.000  0.000  0.000  0.000  0.086
    4  0.000  0.000  0.000  0.224  0.000  0.000  0.000  0.001  0.000  0.224
tot    0.000  0.000  0.000  0.559  0.000  0.000  0.000  0.009  0.000  0.568
 
band    11 # energy    1.87537401 # occ.  2.00000000
 
ion      s     py     pz     px    dxy    dyz    dz2    dxz  x2-y2    tot
    1  0.241  0.000  0.000  0.000  0.000  0.001  0.000  0.000  0.001  0.243
    2  0.246  0.007  0.000  0.000  0.000  0.001  0.000  0.000  0.001  0.256
    3  0.130  0.017  0.000  0.000  0.000  0.000  0.001  0.000  0.000  0.148
    4  0.167  0.001  0.000  0.000  0.000  0.000  0.000  0.000  0.000  0.169
tot    0.784  0.026  0.000  0.000  0.000  0.002  0.001  0.000  0.002  0.816
 
band    12 # energy    2.97482543 # occ.  2.00000000
 
ion      s     py     pz     px    dxy    dyz    dz2    dxz  x2-y2    tot
    1  0.000  0.001  0.067  0.000  0.000  0.000  0.001  0.000  0.026  0.096
    2  0.000  0.001  0.067  0.000  0.000  0.000  0.001  0.000  0.027  0.095
    3  0.000  0.000  0.209  0.000  0.000  0.000  0.000  0.000  0.004  0.214
    4  0.000  0.000  0.248  0.000  0.000  0.000  0.000  0.000  0.002  0.250
tot    0.001  0.003  0.590  0.000  0.000  0.000  0.001  0.000  0.059  0.655
 
band    13 # energy    3.21760219 # occ.  0.46690577
 
ion      s     py     pz     px    dxy    dyz    dz2    dxz  x2-y2    tot
    1  0.000  0.000  0.000  0.111  0.000  0.000  0.000  0.027  0.000  0.138
    2  0.000  0.000  0.000  0.034  0.000  0.000  0.000  0.024  0.000  0.058
    3  0.000  0.000  0.000  0.328  0.000  0.000  0.000  0.005  0.000  0.333
    4  0.000  0.000  0.000  0.137  0.000  0.000  0.000  0.002  0.000  0.139
tot    0.000  0.000  0.000  0.610  0.000  0.000  0.000  0.058  0.000  0.668
 
band    14 # energy    3.24710031 # occ.  0.11832198
 
ion      s     py     pz     px    dxy    dyz    dz2    dxz  x2-y2    tot
    1  0.010  0.034  0.000  0.000  0.000  0.023  0.000  0.000  0.000  0.067
    2  0.008  0.100  0.005  0.000  0.000  0.025  0.000  0.000  0.000  0.139
    3  0.002  0.304  0.001  0.000  0.000  0.004  0.000  0.000  0.000  0.312
    4  0.009  0.137  0.000  0.000  0.000  0.002  0.000  0.000  0.000  0.147
tot    0.028  0.575  0.006  0.000  0.000  0.055  0.001  0.000  0.001  0.666
 
band    15 # energy    4.22685266 # occ.  0.00000000
 
ion      s     py     pz     px    dxy    dyz    dz2    dxz  x2-y2    tot
    1  0.100  0.001  0.013  0.000  0.000  0.000  0.019  0.000  0.000  0.133
    2  0.091  0.000  0.029  0.000  0.000  0.000  0.019  0.000  0.000  0.140
    3  0.001  0.001  0.063  0.000  0.000  0.000  0.000  0.000  0.012  0.076
    4  0.000  0.001  0.067  0.000  0.000  0.000  0.000  0.000  0.024  0.093
tot    0.191  0.003  0.172  0.000  0.000  0.000  0.038  0.000  0.036  0.441
 
band    16 # energy    4.45381475 # occ.  0.00000000
 
ion      s     py     pz     px    dxy    dyz    dz2    dxz  x2-y2    tot
    1  0.003  0.000  0.121  0.000  0.000  0.000  0.000  0.000  0.018  0.142
    2  0.011  0.003  0.097  0.000  0.000  0.000  0.000  0.000  0.017  0.128
    3  0.060  0.006  0.000  0.000  0.000  0.000  0.020  0.000  0.000  0.086
    4  0.013  0.000  0.001  0.000  0.000  0.000  0.014  0.000  0.000  0.028
tot    0.087  0.009  0.219  0.000  0.000  0.000  0.034  0.000  0.035  0.384
 
band    17 # energy    6.22265663 # occ.  0.00000000
 
ion      s     py     pz     px    dxy    dyz    dz2    dxz  x2-y2    tot
    1  0.001  0.212  0.001  0.000  0.000  0.010  0.000  0.000  0.000  0.223
    2  0.001  0.217  0.001  0.000  0.000  0.004  0.000  0.000  0.000  0.223
    3  0.001  0.030  0.001  0.000  0.000  0.033  0.000  0.000  0.000  0.065
    4  0.000  0.020  0.002  0.000  0.000  0.025  0.000  0.000  0.000  0.047
tot    0.002  0.479  0.005  0.000  0.000  0.072  0.000  0.000  0.000  0.558
 
band    18 # energy    6.23013962 # occ.  0.00000000
 
ion      s     py     pz     px    dxy    dyz    dz2    dxz  x2-y2    tot
    1  0.000  0.000  0.000  0.219  0.000  0.000  0.000  0.004  0.000  0.224
    2  0.000  0.000  0.000  0.216  0.000  0.000  0.000  0.010  0.000  0.226
    3  0.000  0.000  0.000  0.032  0.000  0.000  0.000  0.033  0.000  0.065
    4  0.000  0.000  0.000  0.021  0.000  0.000  0.000  0.025  0.000  0.046
tot    0.000  0.000  0.000  0.488  0.000  0.000  0.000  0.072  0.000  0.560
 
band    19 # energy    6.39792045 # occ.  0.00000000
 
ion      s     py     pz     px    dxy    dyz    dz2    dxz  x2-y2    tot
    1  0.001  0.000  0.194  0.000  0.000  0.000  0.003  0.000  0.007  0.205
    2  0.002  0.001  0.198  0.000  0.000  0.000  0.002  0.000  0.007  0.211
    3  0.000  0.002  0.050  0.000  0.000  0.000  0.000  0.000  0.054  0.106
    4  0.000  0.001  0.009  0.000  0.000  0.000  0.000  0.000  0.013  0.023
tot    0.003  0.005  0.450  0.000  0.000  0.001  0.005  0.000  0.081  0.545
 
band    20 # energy    8.98217879 # occ.  0.00000000
 
ion      s     py     pz     px    dxy    dyz    dz2    dxz  x2-y2    tot
    1  0.073  0.002  0.007  0.000  0.000  0.000  0.000  0.000  0.000  0.083
    2  0.073  0.002  0.006  0.000  0.000  0.000  0.000  0.000  0.000  0.082
    3  0.021  0.001  0.000  0.000  0.000  0.000  0.001  0.000  0.000  0.023
    4  0.019  0.000  0.000  0.000  0.000  0.000  0.000  0.000  0.000  0.020
tot    0.185  0.006  0.013  0.000  0.000  0.001  0.001  0.000  0.001  0.207
 

 k-point     3 :    0.00000000 0.05263158 0.00000000     weight = 0.00714286

band     1 # energy  -19.24097857 # occ.  2.00000000
 
ion      s     py     pz     px    dxy    dyz    dz2    dxz  x2-y2    tot
    1  0.000  0.000  0.000  0.000  0.000  0.000  0.000  0.000  0.000  0.000
    2  0.000  0.002  0.000  0.000  0.000  0.001  0.000  0.000  0.000  0.002
    3  0.000  0.000  0.000  0.000  0.000  0.969  0.009  0.000  0.008  0.986
    4  0.000  0.000  0.000  0.000  0.000  0.000  0.000  0.000  0.000  0.000
tot    0.000  0.002  0.000  0.000  0.000  0.970  0.009  0.000  0.008  0.988
 
band     2 # energy  -19.24051193 # occ.  2.00000000
 
ion      s     py     pz     px    dxy    dyz    dz2    dxz  x2-y2    tot
    1  0.000  0.000  0.000  0.002  0.000  0.000  0.000  0.001  0.000  0.002
    2  0.000  0.000  0.000  0.000  0.000  0.000  0.000  0.000  0.000  0.000
    3  0.000  0.000  0.000  0.000  0.000  0.000  0.000  0.986  0.000  0.986
    4  0.000  0.000  0.000  0.000  0.000  0.000  0.000  0.000  0.000  0.000
tot    0.000  0.000  0.000  0.002  0.000  0.000  0.000  0.986  0.000  0.988
 
band     3 # energy  -19.23696171 # occ.  2.00000000
 
ion      s     py     pz     px    dxy    dyz    dz2    dxz  x2-y2    tot
    1  0.000  0.000  0.000  0.000  0.000  0.000  0.000  0.000  0.000  0.000
    2  0.000  0.000  0.000  0.000  0.000  0.000  0.000  0.000  0.000  0.000
    3  0.000  0.000  0.000  0.000  0.000  0.008  0.977  0.000  0.001  0.986
    4  0.000  0.000  0.000  0.000  0.000  0.000  0.000  0.000  0.000  0.000
tot    0.000  0.000  0.000  0.000  0.000  0.008  0.977  0.000  0.002  0.987
 
band     4 # energy  -19.22823397 # occ.  2.00000000
 
ion      s     py     pz     px    dxy    dyz    dz2    dxz  x2-y2    tot
    1  0.001  0.000  0.001  0.000  0.000  0.000  0.000  0.000  0.000  0.002
    2  0.001  0.000  0.001  0.000  0.000  0.000  0.000  0.000  0.000  0.002
    3  0.000  0.000  0.000  0.000  0.000  0.008  0.001  0.000  0.975  0.984
    4  0.000  0.000  0.000  0.000  0.000  0.000  0.000  0.000  0.000  0.000
tot    0.001  0.000  0.001  0.000  0.000  0.008  0.001  0.000  0.975  0.987
 
band     5 # energy  -19.17267463 # occ.  2.00000000
 
ion      s     py     pz     px    dxy    dyz    dz2    dxz  x2-y2    tot
    1  0.000  0.000  0.000  0.000  0.000  0.000  0.000  0.000  0.000  0.000
    2  0.000  0.000  0.000  0.000  0.000  0.000  0.000  0.000  0.000  0.000
    3  0.000  0.000  0.000  0.000  0.987  0.000  0.000  0.000  0.000  0.987
    4  0.000  0.000  0.000  0.000  0.000  0.000  0.000  0.000  0.000  0.000
tot    0.000  0.000  0.000  0.000  0.987  0.000  0.000  0.000  0.000  0.987
 
band     6 # energy   -9.08461030 # occ.  2.00000000
 
ion      s     py     pz     px    dxy    dyz    dz2    dxz  x2-y2    tot
    1  0.097  0.000  0.000  0.000  0.000  0.000  0.000  0.000  0.000  0.098
    2  0.097  0.000  0.000  0.000  0.000  0.000  0.000  0.000  0.000  0.098
    3  0.281  0.000  0.000  0.000  0.000  0.000  0.000  0.000  0.000  0.282
    4  0.207  0.000  0.000  0.000  0.000  0.000  0.000  0.000  0.000  0.207
tot    0.683  0.001  0.000  0.000  0.000  0.000  0.000  0.000  0.000  0.684
 
band     7 # energy   -7.34677984 # occ.  2.00000000
 
ion      s     py     pz     px    dxy    dyz    dz2    dxz  x2-y2    tot
    1  0.001  0.000  0.031  0.000  0.000  0.000  0.000  0.000  0.005  0.037
    2  0.001  0.000  0.031  0.000  0.000  0.000  0.000  0.000  0.005  0.038
    3  0.351  0.000  0.000  0.000  0.000  0.000  0.000  0.000  0.000  0.351
    4  0.315  0.000  0.000  0.000  0.000  0.000  0.000  0.000  0.000  0.315
tot    0.668  0.001  0.062  0.000  0.000  0.000  0.000  0.000  0.010  0.741
 
band     8 # energy   -3.47503119 # occ.  2.00000000
 
ion      s     py     pz     px    dxy    dyz    dz2    dxz  x2-y2    tot
    1  0.276  0.000  0.000  0.000  0.000  0.000  0.001  0.000  0.000  0.278
    2  0.275  0.000  0.001  0.000  0.000  0.000  0.001  0.000  0.000  0.277
    3  0.000  0.001  0.076  0.000  0.000  0.000  0.000  0.000  0.004  0.081
    4  0.000  0.001  0.060  0.000  0.000  0.000  0.000  0.000  0.002  0.063
tot    0.551  0.001  0.137  0.000  0.000  0.000  0.002  0.000  0.007  0.698
 
band     9 # energy    0.44348956 # occ.  2.00000000
 
ion      s     py     pz     px    dxy    dyz    dz2    dxz  x2-y2    tot
    1  0.009  0.156  0.005  0.000  0.000  0.007  0.000  0.000  0.000  0.177
    2  0.002  0.080  0.001  0.000  0.000  0.000  0.000  0.000  0.000  0.083
    3  0.001  0.076  0.002  0.000  0.000  0.000  0.000  0.000  0.000  0.080
    4  0.004  0.215  0.003  0.000  0.000  0.001  0.000  0.000  0.000  0.222
tot    0.015  0.526  0.011  0.000  0.000  0.009  0.001  0.000  0.000  0.562
 
band    10 # energy    0.56930677 # occ.  2.00000000
 
ion      s     py     pz     px    dxy    dyz    dz2    dxz  x2-y2    tot
    1  0.000  0.000  0.000  0.086  0.000  0.000  0.000  0.000  0.000  0.087
    2  0.000  0.000  0.000  0.164  0.000  0.000  0.000  0.008  0.000  0.171
    3  0.000  0.000  0.000  0.085  0.000  0.000  0.000  0.000  0.000  0.085
    4  0.000  0.000  0.000  0.224  0.000  0.000  0.000  0.001  0.000  0.225
tot    0.000  0.000  0.000  0.559  0.000  0.000  0.000  0.009  0.000  0.569
 
band    11 # energy    1.73760638 # occ.  2.00000000
 
ion      s     py     pz     px    dxy    dyz    dz2    dxz  x2-y2    tot
    1  0.213  0.000  0.000  0.000  0.000  0.002  0.000  0.000  0.001  0.216
    2  0.229  0.023  0.000  0.000  0.000  0.004  0.000  0.000  0.001  0.257
    3  0.121  0.055  0.001  0.000  0.000  0.001  0.000  0.000  0.000  0.178
    4  0.147  0.004  0.000  0.000  0.000  0.000  0.000  0.000  0.000  0.151
tot    0.710  0.081  0.001  0.000  0.000  0.007  0.001  0.000  0.002  0.802
 
band    12 # energy    2.92541057 # occ.  2.00000000
 
ion      s     py     pz     px    dxy    dyz    dz2    dxz  x2-y2    tot
    1  0.000  0.005  0.067  0.000  0.000  0.000  0.001  0.000  0.025  0.098
    2  0.000  0.005  0.065  0.000  0.000  0.000  0.001  0.000  0.026  0.097
    3  0.000  0.002  0.205  0.000  0.000  0.000  0.000  0.000  0.004  0.211
    4  0.000  0.001  0.242  0.000  0.000  0.000  0.000  0.000  0.002  0.245
tot    0.001  0.013  0.579  0.000  0.000  0.001  0.001  0.000  0.057  0.652
 
band    13 # energy    3.21117539 # occ.  0.58524103
 
ion      s     py     pz     px    dxy    dyz    dz2    dxz  x2-y2    tot
    1  0.000  0.000  0.000  0.112  0.000  0.000  0.000  0.027  0.000  0.139
    2  0.000  0.000  0.000  0.034  0.000  0.000  0.000  0.024  0.000  0.058
    3  0.000  0.000  0.000  0.328  0.000  0.000  0.000  0.005  0.000  0.333
    4  0.000  0.000  0.000  0.136  0.000  0.000  0.000  0.002  0.000  0.138
tot    0.000  0.000  0.000  0.610  0.000  0.000  0.000  0.058  0.000  0.668
 
band    14 # energy    3.32197994 # occ.  0.00023344
 
ion      s     py     pz     px    dxy    dyz    dz2    dxz  x2-y2    tot
    1  0.028  0.034  0.000  0.000  0.000  0.021  0.000  0.000  0.001  0.085
    2  0.027  0.079  0.017  0.000  0.000  0.021  0.000  0.000  0.002  0.146
    3  0.007  0.253  0.002  0.000  0.000  0.003  0.001  0.000  0.001  0.268
    4  0.027  0.134  0.001  0.000  0.000  0.001  0.001  0.000  0.000  0.164
tot    0.090  0.500  0.020  0.000  0.000  0.047  0.002  0.000  0.003  0.662
 
band    15 # energy    4.27835573 # occ.  0.00000000
 
ion      s     py     pz     px    dxy    dyz    dz2    dxz  x2-y2    tot
    1  0.107  0.003  0.002  0.000  0.000  0.000  0.018  0.000  0.001  0.130
    2  0.072  0.000  0.050  0.000  0.000  0.000  0.018  0.000  0.002  0.142
    3  0.005  0.000  0.059  0.000  0.000  0.000  0.001  0.000  0.011  0.078
    4  0.001  0.005  0.062  0.000  0.000  0.000  0.001  0.000  0.022  0.091
tot    0.185  0.009  0.173  0.000  0.000  0.000  0.038  0.000  0.036  0.440
 
band    16 # energy    4.55890564 # occ.  0.00000000
 
ion      s     py     pz     px    dxy    dyz    dz2    dxz  x2-y2    tot
    1  0.000  0.001  0.138  0.000  0.000  0.000  0.001  0.000  0.017  0.158
    2  0.026  0.009  0.065  0.000  0.000  0.001  0.001  0.000  0.014  0.116
    3  0.056  0.021  0.002  0.000  0.000  0.000  0.018  0.000  0.000  0.097
    4  0.011  0.000  0.006  0.000  0.000  0.000  0.012  0.000  0.002  0.032
tot    0.093  0.031  0.211  0.000  0.000  0.001  0.032  0.000  0.034  0.403
 
band    17 # energy    6.21551165 # occ.  0.00000000
 
ion      s     py     pz     px    dxy    dyz    dz2    dxz  x2-y2    tot
    1  0.002  0.200  0.004  0.000  0.000  0.009  0.000  0.000  0.001  0.216
    2  0.003  0.208  0.004  0.000  0.000  0.004  0.000  0.000  0.001  0.220
    3  0.002  0.027  0.004  0.000  0.000  0.032  0.000  0.000  0.000  0.066
    4  0.001  0.018  0.006  0.000  0.000  0.024  0.000  0.000  0.000  0.050
tot    0.009  0.453  0.018  0.000  0.000  0.070  0.000  0.000  0.002  0.552
 
band    18 # energy    6.24345299 # occ.  0.00000000
 
ion      s     py     pz     px    dxy    dyz    dz2    dxz  x2-y2    tot
    1  0.000  0.000  0.000  0.219  0.000  0.000  0.000  0.004  0.000  0.223
    2  0.000  0.000  0.000  0.216  0.000  0.000  0.000  0.010  0.000  0.225
    3  0.000  0.000  0.000  0.032  0.000  0.000  0.000  0.033  0.000  0.065
    4  0.000  0.000  0.000  0.021  0.000  0.000  0.000  0.025  0.000  0.046
tot    0.000  0.000  0.000  0.487  0.000  0.000  0.000  0.072  0.000  0.560
 