<?xml version="1.0" encoding="ISO-8859-1"?>
<modeling>
 <generator>
  <i name="program" type="string">vasp </i>
  <i name="version" type="string">5.4.4.18Apr17-6-g9f103f2a35  </i>
  <i name="subversion" type="string">(build Dec 27 2023 19:01:38) complex            parallel </i>
  <i name="platform" type="string">LinuxIFC </i>
  <i name="date" type="string">2024 08 31 </i>
  <i name="time" type="string">20:10:05 </i>
 </generator>
 <incar>
  <i type="string" name="SYSTEM"> Ga2BiAs</i>
  <i type="string" name="PREC">accurate</i>
  <i type="int" name="ICHARG">     2</i>
  <i name="EDIFF">      0.00001000</i>
  <i name="EDIFFG">     -0.01000000</i>
  <i name="ENCUT">    500.00000000</i>
  <i type="int" name="ISMEAR">     0</i>
  <i name="SIGMA">      0.05000000</i>
  <i type="logical" name="LWAVE"> F  </i>
  <i type="logical" name="LCHARG"> F  </i>
  <i type="int" name="LORBIT">    11</i>
  <v type="int" name="KPOINT_BSE">    -1     0     0     0</v>
 </incar>
 <structure name="primitive_cell" >
  <crystal>
   <varray name="basis" >
    <v>       4.30014086       0.00000000       0.00000000 </v>
    <v>       0.00000000       4.30014086       0.00000000 </v>
    <v>       0.00000000       0.00000000       6.14586115 </v>
   </varray>
   <i name="volume">    113.64441771 </i>
   <varray name="rec_basis" >
    <v>       0.23255052       0.00000000       0.00000000 </v>
    <v>       0.00000000       0.23255052       0.00000000 </v>
    <v>       0.00000000       0.00000000       0.16271113 </v>
   </varray>
  </crystal>
  <varray name="positions" >
   <v>      -0.50000000       0.00000000      -0.27426398 </v>
   <v>      -0.50000000      -0.50000000      -0.50000000 </v>
   <v>       0.00000000       0.00000000       0.00000000 </v>
   <v>       0.00000000      -0.50000000       0.27426400 </v>
  </varray>
 </structure>
 <varray name="primitive_index" >
  <v type="int" >        1 </v>
  <v type="int" >        4 </v>
  <v type="int" >        3 </v>
  <v type="int" >        2 </v>
 </varray>
 <kpoints>
  <generation param="listgenerated">
   <i name="divisions" type="int">      20 </i>
   <v>       0.00000000       0.00000000       0.00000000 </v>
   <v>       0.00000000       0.50000000       0.00000000 </v>
   <v>       0.50000000       0.50000000       0.00000000 </v>
   <v>       0.00000000       0.00000000       0.00000000 </v>
   <v>       0.00000000       0.00000000       0.50000000 </v>
   <v>       0.00000000       0.50000000       0.50000000 </v>
   <v>       0.50000000       0.50000000       0.50000000 </v>
   <v>       0.00000000       0.00000000       0.50000000 </v>
  </generation>
  <varray name="kpointlist" >
   <v>       0.00000000       0.00000000       0.00000000 </v>
   <v>       0.00000000       0.02631579       0.00000000 </v>
   <v>       0.00000000       0.05263158       0.00000000 </v>
   <v>       0.00000000       0.07894737       0.00000000 </v>
   <v>       0.00000000       0.10526316       0.00000000 </v>
   <v>       0.00000000       0.13157895       0.00000000 </v>
   <v>       0.00000000       0.15789474       0.00000000 </v>
   <v>       0.00000000       0.18421053       0.00000000 </v>
   <v>       0.00000000       0.21052632       0.00000000 </v>
   <v>       0.00000000       0.23684211       0.00000000 </v>
   <v>       0.00000000       0.26315789       0.00000000 </v>
   <v>       0.00000000       0.28947368       0.00000000 </v>
   <v>       0.00000000       0.31578947       0.00000000 </v>
   <v>       0.00000000       0.34210526       0.00000000 </v>
   <v>       0.00000000       0.36842105       0.00000000 </v>
   <v>       0.00000000       0.39473684       0.00000000 </v>
   <v>       0.00000000       0.42105263       0.00000000 </v>
   <v>       0.00000000       0.44736842       0.00000000 </v>
   <v>       0.00000000       0.47368421       0.00000000 </v>
   <v>       0.00000000       0.50000000       0.00000000 </v>
   <v>       0.00000000       0.50000000       0.00000000 </v>
   <v>       0.02631579       0.50000000       0.00000000 </v>
   <v>       0.05263158       0.50000000       0.00000000 </v>
   <v>       0.07894737       0.50000000       0.00000000 </v>
   <v>       0.10526316       0.50000000       0.00000000 </v>
   <v>       0.13157895       0.50000000       0.00000000 </v>
   <v>       0.15789474       0.50000000       0.00000000 </v>
   <v>       0.18421053       0.50000000       0.00000000 </v>
   <v>       0.21052632       0.50000000       0.00000000 </v>
   <v>       0.23684211       0.50000000       0.00000000 </v>
   <v>       0.26315789       0.50000000       0.00000000 </v>
   <v>       0.28947368       0.50000000       0.00000000 </v>
   <v>       0.31578947       0.50000000       0.00000000 </v>
   <v>       0.34210526       0.50000000       0.00000000 </v>
   <v>       0.36842105       0.50000000       0.00000000 </v>
   <v>       0.39473684       0.50000000       0.00000000 </v>
   <v>       0.42105263       0.50000000       0.00000000 </v>
   <v>       0.44736842       0.50000000       0.00000000 </v>
   <v>       0.47368421       0.50000000       0.00000000 </v>
   <v>       0.50000000       0.50000000       0.00000000 </v>
   <v>       0.50000000       0.50000000       0.00000000 </v>
   <v>       0.47368421       0.47368421       0.00000000 </v>
   <v>       0.44736842       0.44736842       0.00000000 </v>
   <v>       0.42105263       0.42105263       0.00000000 </v>
   <v>       0.39473684       0.39473684       0.00000000 </v>
   <v>       0.36842105       0.36842105       0.00000000 </v>
   <v>       0.34210526       0.34210526       0.00000000 </v>
   <v>       0.31578947       0.31578947       0.00000000 </v>
   <v>       0.28947368       0.28947368       0.00000000 </v>
   <v>       0.26315789       0.26315789       0.00000000 </v>
   <v>       0.23684211       0.23684211       0.00000000 </v>
   <v>       0.21052632       0.21052632       0.00000000 </v>
   <v>       0.18421053       0.18421053       0.00000000 </v>
   <v>       0.15789474       0.15789474       0.00000000 </v>
   <v>       0.13157895       0.13157895       0.00000000 </v>
   <v>       0.10526316       0.10526316       0.00000000 </v>
   <v>       0.07894737       0.07894737       0.00000000 </v>
   <v>       0.05263158       0.05263158       0.00000000 </v>
   <v>       0.02631579       0.02631579       0.00000000 </v>
   <v>       0.00000000       0.00000000       0.00000000 </v>
   <v>       0.00000000       0.00000000       0.00000000 </v>
   <v>       0.00000000       0.00000000       0.02631579 </v>
   <v>       0.00000000       0.00000000       0.05263158 </v>
   <v>       0.00000000       0.00000000       0.07894737 </v>
   <v>       0.00000000       0.00000000       0.10526316 </v>
   <v>       0.00000000       0.00000000       0.13157895 </v>
   <v>       0.00000000       0.00000000       0.15789474 </v>
   <v>       0.00000000       0.00000000       0.18421053 </v>
   <v>       0.00000000       0.00000000       0.21052632 </v>
   <v>       0.00000000       0.00000000       0.23684211 </v>
   <v>       0.00000000       0.00000000       0.26315789 </v>
   <v>       0.00000000       0.00000000       0.28947368 </v>
   <v>       0.00000000       0.00000000       0.31578947 </v>
   <v>       0.00000000       0.00000000       0.34210526 </v>
   <v>       0.00000000       0.00000000       0.36842105 </v>
   <v>       0.00000000       0.00000000       0.39473684 </v>
   <v>       0.00000000       0.00000000       0.42105263 </v>
   <v>       0.00000000       0.00000000       0.44736842 </v>
   <v>       0.00000000       0.00000000       0.47368421 </v>
   <v>       0.00000000       0.00000000       0.50000000 </v>
   <v>       0.00000000       0.00000000       0.50000000 </v>
   <v>       0.00000000       0.02631579       0.50000000 </v>
   <v>       0.00000000       0.05263158       0.50000000 </v>
   <v>       0.00000000       0.07894737       0.50000000 </v>
   <v>       0.00000000       0.10526316       0.50000000 </v>
   <v>       0.00000000       0.13157895       0.50000000 </v>
   <v>       0.00000000       0.15789474       0.50000000 </v>
   <v>       0.00000000       0.18421053       0.50000000 </v>
   <v>       0.00000000       0.21052632       0.50000000 </v>
   <v>       0.00000000       0.23684211       0.50000000 </v>
   <v>       0.00000000       0.26315789       0.50000000 </v>
   <v>       0.00000000       0.28947368       0.50000000 </v>
   <v>       0.00000000       0.31578947       0.50000000 </v>
   <v>       0.00000000       0.34210526       0.50000000 </v>
   <v>       0.00000000       0.36842105       0.50000000 </v>
   <v>       0.00000000       0.39473684       0.50000000 </v>
   <v>       0.00000000       0.42105263       0.50000000 </v>
   <v>       0.00000000       0.44736842       0.50000000 </v>
   <v>       0.00000000       0.47368421       0.50000000 </v>
   <v>       0.00000000       0.50000000       0.50000000 </v>
   <v>       0.00000000       0.50000000       0.50000000 </v>
   <v>       0.02631579       0.50000000       0.50000000 </v>
   <v>       0.05263158       0.50000000       0.50000000 </v>
   <v>       0.07894737       0.50000000       0.50000000 </v>
   <v>       0.10526316       0.50000000       0.50000000 </v>
   <v>       0.13157895       0.50000000       0.50000000 </v>
   <v>       0.15789474       0.50000000       0.50000000 </v>
   <v>       0.18421053       0.50000000       0.50000000 </v>
   <v>       0.21052632       0.50000000       0.50000000 </v>
   <v>       0.23684211       0.50000000       0.50000000 </v>
   <v>       0.26315789       0.50000000       0.50000000 </v>
   <v>       0.28947368       0.50000000       0.50000000 </v>
   <v>       0.31578947       0.50000000       0.50000000 </v>
   <v>       0.34210526       0.50000000       0.50000000 </v>
   <v>       0.36842105       0.50000000       0.50000000 </v>
   <v>       0.39473684       0.50000000       0.50000000 </v>
   <v>       0.42105263       0.50000000       0.50000000 </v>
   <v>       0.44736842       0.50000000       0.50000000 </v>
   <v>       0.47368421       0.50000000       0.50000000 </v>
   <v>       0.50000000       0.50000000       0.50000000 </v>
   <v>       0.50000000       0.50000000       0.50000000 </v>
   <v>       0.47368421       0.47368421       0.50000000 </v>
   <v>       0.44736842       0.44736842       0.50000000 </v>
   <v>       0.42105263       0.42105263       0.50000000 </v>
   <v>       0.39473684       0.39473684       0.50000000 </v>
   <v>       0.36842105       0.36842105       0.50000000 </v>
   <v>       0.34210526       0.34210526       0.50000000 </v>
   <v>       0.31578947       0.31578947       0.50000000 </v>
   <v>       0.28947368       0.28947368       0.50000000 </v>
   <v>       0.26315789       0.26315789       0.50000000 </v>
   <v>       0.23684211       0.23684211       0.50000000 </v>
   <v>       0.21052632       0.21052632       0.50000000 </v>
   <v>       0.18421053       0.18421053       0.50000000 </v>
   <v>       0.15789474       0.15789474       0.50000000 </v>
   <v>       0.13157895       0.13157895       0.50000000 </v>
   <v>       0.10526316       0.10526316       0.50000000 </v>
   <v>       0.07894737       0.07894737       0.50000000 </v>
   <v>       0.05263158       0.05263158       0.50000000 </v>
   <v>       0.02631579       0.02631579       0.50000000 </v>
   <v>       0.00000000       0.00000000       0.50000000 </v>
  </varray>
  <varray name="weights" >
   <v>       0.00714286 </v>
   <v>       0.00714286 </v>
   <v>       0.00714286 </v>
   <v>       0.00714286 </v>
   <v>       0.00714286 </v>
   <v>       0.00714286 </v>
   <v>       0.00714286 </v>
   <v>       0.00714286 </v>
   <v>       0.00714286 </v>
   <v>       0.00714286 </v>
   <v>       0.00714286 </v>
   <v>       0.00714286 </v>
   <v>       0.00714286 </v>
   <v>       0.00714286 </v>
   <v>       0.00714286 </v>
   <v>       0.00714286 </v>
   <v>       0.00714286 </v>
   <v>       0.00714286 </v>
   <v>       0.00714286 </v>
   <v>       0.00714286 </v>
   <v>       0.00714286 </v>
   <v>       0.00714286 </v>
   <v>       0.00714286 </v>
   <v>       0.00714286 </v>
   <v>       0.00714286 </v>
   <v>       0.00714286 </v>
   <v>       0.00714286 </v>
   <v>       0.00714286 </v>
   <v>       0.00714286 </v>
   <v>       0.00714286 </v>
   <v>       0.00714286 </v>
   <v>       0.00714286 </v>
   <v>       0.00714286 </v>
   <v>       0.00714286 </v>
   <v>       0.00714286 </v>
   <v>       0.00714286 </v>
   <v>       0.00714286 </v>
   <v>       0.00714286 </v>
   <v>       0.00714286 </v>
   <v>       0.00714286 </v>
   <v>       0.00714286 </v>
   <v>       0.00714286 </v>
   <v>       0.00714286 </v>
   <v>       0.00714286 </v>
   <v>       0.00714286 </v>
   <v>       0.00714286 </v>
   <v>       0.00714286 </v>
   <v>       0.00714286 </v>
   <v>       0.00714286 </v>
   <v>       0.00714286 </v>
   <v>       0.00714286 </v>
   <v>       0.00714286 </v>
   <v>       0.00714286 </v>
   <v>       0.00714286 </v>
   <v>       0.00714286 </v>
   <v>       0.00714286 </v>
   <v>       0.00714286 </v>
   <v>       0.00714286 </v>
   <v>       0.00714286 </v>
   <v>       0.00714286 </v>
   <v>       0.00714286 </v>
   <v>       0.00714286 </v>
   <v>       0.00714286 </v>
   <v>       0.00714286 </v>
   <v>       0.00714286 </v>
   <v>       0.00714286 </v>
   <v>       0.00714286 </v>
   <v>       0.00714286 </v>
   <v>       0.00714286 </v>
   <v>       0.00714286 </v>
   <v>       0.00714286 </v>
   <v>       0.00714286 </v>
   <v>       0.00714286 </v>
   <v>       0.00714286 </v>
   <v>       0.00714286 </v>
   <v>       0.00714286 </v>
   <v>       0.00714286 </v>
   <v>       0.00714286 </v>
   <v>       0.00714286 </v>
   <v>       0.00714286 </v>
   <v>       0.00714286 </v>
   <v>       0.00714286 </v>
   <v>       0.00714286 </v>
   <v>       0.00714286 </v>
   <v>       0.00714286 </v>
   <v>       0.00714286 </v>
   <v>       0.00714286 </v>
   <v>       0.00714286 </v>
   <v>       0.00714286 </v>
   <v>       0.00714286 </v>
   <v>       0.00714286 </v>
   <v>       0.00714286 </v>
   <v>       0.00714286 </v>
   <v>       0.00714286 </v>
   <v>       0.00714286 </v>
   <v>       0.00714286 </v>
   <v>       0.00714286 </v>
   <v>       0.00714286 </v>
   <v>       0.00714286 </v>
   <v>       0.00714286 </v>
   <v>       0.00714286 </v>
   <v>       0.00714286 </v>
   <v>       0.00714286 </v>
   <v>       0.00714286 </v>
   <v>       0.00714286 </v>
   <v>       0.00714286 </v>
   <v>       0.00714286 </v>
   <v>       0.00714286 </v>
   <v>       0.00714286 </v>
   <v>       0.00714286 </v>
   <v>       0.00714286 </v>
   <v>       0.00714286 </v>
   <v>       0.00714286 </v>
   <v>       0.00714286 </v>
   <v>       0.00714286 </v>
   <v>       0.00714286 </v>
   <v>       0.00714286 </v>
   <v>       0.00714286 </v>
   <v>       0.00714286 </v>
   <v>       0.00714286 </v>
   <v>       0.00714286 </v>
   <v>       0.00714286 </v>
   <v>       0.00714286 </v>
   <v>       0.00714286 </v>
   <v>       0.00714286 </v>
   <v>       0.00714286 </v>
   <v>       0.00714286 </v>
   <v>       0.00714286 </v>
   <v>       0.00714286 </v>
   <v>       0.00714286 </v>
   <v>       0.00714286 </v>
   <v>       0.00714286 </v>
   <v>       0.00714286 </v>
   <v>       0.00714286 </v>
   <v>       0.00714286 </v>
   <v>       0.00714286 </v>
   <v>       0.00714286 </v>
   <v>       0.00714286 </v>
   <v>       0.00714286 </v>
   <v>       0.00714286 </v>
  </varray>
 </kpoints>
 <parameters>
  <separator name="general" >
   <i type="string" name="SYSTEM">Ga2BiAs</i>
   <i type="logical" name="LCOMPAT"> F  </i>
  </separator>
  <separator name="electronic" >
   <i type="string" name="PREC">accura</i>
   <i name="ENMAX">    500.00000000</i>
   <i name="ENAUG">    462.75800000</i>
   <i name="EDIFF">      0.00001000</i>
   <i type="int" name="IALGO">    38</i>
   <i type="int" name="IWAVPR">    10</i>
   <i type="int" name="NBANDS">    20</i>
   <i name="NELECT">     26.00000000</i>
   <i type="int" name="TURBO">     0</i>
   <i type="int" name="IRESTART">     0</i>
   <i type="int" name="NREBOOT">     0</i>
   <i type="int" name="NMIN">     0</i>
   <i name="EREF">      0.00000000</i>
   <separator name="electronic smearing" >
    <i type="int" name="ISMEAR">     0</i>
    <i name="SIGMA">      0.05000000</i>
    <i name="KSPACING">      0.50000000</i>
    <i type="logical" name="KGAMMA"> T  </i>
   </separator>
   <separator name="electronic projectors" >
    <i type="logical" name="LREAL"> F  </i>
    <v name="ROPT">      0.00000000      0.00000000      0.00000000</v>
    <i type="int" name="LMAXPAW">  -100</i>
    <i type="int" name="LMAXMIX">     2</i>
    <i type="logical" name="NLSPLINE"> F  </i>
   </separator>
   <separator name="electronic startup" >
    <i type="int" name="ISTART">     1</i>
    <i type="int" name="ICHARG">     2</i>
    <i type="int" name="INIWAV">     1</i>
   </separator>
   <separator name="electronic spin" >
    <i type="int" name="ISPIN">     1</i>
    <i type="logical" name="LNONCOLLINEAR"> F  </i>
    <v name="MAGMOM">      1.00000000      1.00000000      1.00000000      1.00000000</v>
    <i name="NUPDOWN">     -1.00000000</i>
    <i type="logical" name="LSORBIT"> F  </i>
    <v name="SAXIS">      0.00000000      0.00000000      1.00000000</v>
    <i type="logical" name="LSPIRAL"> F  </i>
    <v name="QSPIRAL">      0.00000000      0.00000000      0.00000000</v>
    <i type="logical" name="LZEROZ"> F  </i>
   </separator>
   <separator name="electronic exchange-correlation" >
    <i type="logical" name="LASPH"> F  </i>
    <i type="logical" name="LMETAGGA"> F  </i>
   </separator>
   <separator name="electronic convergence" >
    <i type="int" name="NELM">    60</i>
    <i type="int" name="NELMDL">     0</i>
    <i type="int" name="NELMIN">     2</i>
    <i name="ENINI">    500.00000000</i>
    <separator name="electronic convergence detail" >
     <i type="logical" name="LDIAG"> T  </i>
     <i type="logical" name="LSUBROT"> F  </i>
     <i name="WEIMIN">      0.00000000</i>
     <i name="EBREAK">      0.00000013</i>
     <i name="DEPER">      0.30000000</i>
     <i type="int" name="NRMM">     4</i>
     <i name="TIME">      0.40000000</i>
    </separator>
   </separator>
   <separator name="electronic mixer" >
    <i name="AMIX">      0.40000000</i>
    <i name="BMIX">      1.00000000</i>
    <i name="AMIN">      0.10000000</i>
    <i name="AMIX_MAG">      1.60000000</i>
    <i name="BMIX_MAG">      1.00000000</i>
    <separator name="electronic mixer details" >
     <i type="int" name="IMIX">     4</i>
     <i type="logical" name="MIXFIRST"> F  </i>
     <i type="int" name="MAXMIX">   -45</i>
     <i name="WC">    100.00000000</i>
     <i type="int" name="INIMIX">     1</i>
     <i type="int" name="MIXPRE">     1</i>
     <i type="int" name="MREMOVE">     5</i>
    </separator>
   </separator>
   <separator name="electronic dipolcorrection" >
    <i type="logical" name="LDIPOL"> F  </i>
    <i type="logical" name="LMONO"> F  </i>
    <i type="int" name="IDIPOL">     0</i>
    <i name="EPSILON">      1.00000000</i>
    <v name="DIPOL">   -100.00000000   -100.00000000   -100.00000000</v>
    <i name="EFIELD">      0.00000000</i>
   </separator>
  </separator>
  <separator name="grids" >
   <i type="int" name="NGX">    32</i>
   <i type="int" name="NGY">    32</i>
   <i type="int" name="NGZ">    48</i>
   <i type="int" name="NGXF">    64</i>
   <i type="int" name="NGYF">    64</i>
   <i type="int" name="NGZF">    96</i>
   <i type="logical" name="ADDGRID"> F  </i>
  </separator>
  <separator name="ionic" >
   <i type="int" name="NSW">     0</i>
   <i type="int" name="IBRION">    -1</i>
   <i type="int" name="MDALGO">     0</i>
   <i type="int" name="ISIF">     2</i>
   <i name="PSTRESS">      0.00000000</i>
   <i name="EDIFFG">     -0.01000000</i>
   <i type="int" name="NFREE">     0</i>
   <i name="POTIM">      0.50000000</i>
   <i name="SMASS">     -3.00000000</i>
   <i name="SCALEE">      1.00000000</i>
  </separator>
  <separator name="ionic md" >
   <i name="TEBEG">      0.00010000</i>
   <i name="TEEND">      0.00010000</i>
   <i type="int" name="NBLOCK">     1</i>
   <i type="int" name="KBLOCK">     1</i>
   <i type="int" name="NPACO">   256</i>
   <i name="APACO">     16.00000000</i>
  </separator>
  <separator name="symmetry" >
   <i type="int" name="ISYM">     2</i>
   <i name="SYMPREC">      0.00001000</i>
  </separator>
  <separator name="dos" >
   <i type="int" name="LORBIT">    11</i>
   <v name="RWIGS">     -1.00000000     -1.00000000     -1.00000000</v>
   <i type="int" name="NEDOS">   301</i>
   <i name="EMIN">     10.00000000</i>
   <i name="EMAX">    -10.00000000</i>
   <i name="EFERMI">      0.00000000</i>
  </separator>
  <separator name="writing" >
   <i type="int" name="NWRITE">     2</i>
   <i type="logical" name="LWAVE"> F  </i>
   <i type="logical" name="LDOWNSAMPLE"> F  </i>
   <i type="logical" name="LCHARG"> F  </i>
   <i type="logical" name="LPARD"> F  </i>
   <i type="logical" name="LVTOT"> F  </i>
   <i type="logical" name="LVHAR"> F  </i>
   <i type="logical" name="LELF"> F  </i>
   <i type="logical" name="LOPTICS"> F  </i>
   <v name="STM">      0.00000000      0.00000000      0.00000000      0.00000000      0.00000000      0.00000000      0.00000000</v>
  </separator>
  <separator name="performance" >
   <i type="int" name="NPAR">     4</i>
   <i type="int" name="NSIM">     4</i>
   <i type="int" name="NBLK">    -1</i>
   <i type="logical" name="LPLANE"> T  </i>
   <i type="logical" name="LSCALAPACK"> T  </i>
   <i type="logical" name="LSCAAWARE"> F  </i>
   <i type="logical" name="LSCALU"> F  </i>
   <i type="logical" name="LASYNC"> F  </i>
   <i type="logical" name="LORBITALREAL"> F  </i>
  </separator>
  <separator name="miscellaneous" >
   <i type="int" name="IDIOT">     3</i>
   <i type="int" name="ISPECIAL">     0</i>
   <i type="logical" name="LMUSIC"> F  </i>
   <v name="POMASS">     69.72300000    208.98000000     74.92200000</v>
   <v name="DARWINR">      0.00000000      0.00000000      0.00000000</v>
   <v name="DARWINV">      1.00000000      1.00000000      1.00000000</v>
   <i type="logical" name="LCORR"> T  </i>
  </separator>
  <i type="logical" name="GGA_COMPAT"> T  </i>
  <i type="logical" name="LBERRY"> F  </i>
  <i type="int" name="ICORELEVEL">     0</i>
  <i type="logical" name="LDAU"> F  </i>
  <i type="int" name="I_CONSTRAINED_M">     0</i>
  <separator name="electronic exchange-correlation" >
   <i type="string" name="GGA">--</i>
   <i type="int" name="VOSKOWN">     0</i>
   <i type="logical" name="LHFCALC"> F  </i>
   <i type="string" name="PRECFOCK"></i>
   <i type="logical" name="LSYMGRAD"> F  </i>
   <i type="logical" name="LHFONE"> F  </i>
   <i type="logical" name="LRHFCALC"> F  </i>
   <i type="logical" name="LTHOMAS"> F  </i>
   <i type="logical" name="LMODELHF"> F  </i>
   <i name="ENCUT4O">     -1.00000000</i>
   <i type="int" name="EXXOEP">     0</i>
   <i type="int" name="FOURORBIT">     0</i>
   <i name="AEXX">      0.00000000</i>
   <i name="HFALPHA">      0.00000000</i>
   <i name="MCALPHA">      0.00000000</i>
   <i name="ALDAX">      1.00000000</i>
   <i name="AGGAX">      1.00000000</i>
   <i name="ALDAC">      1.00000000</i>
   <i name="AGGAC">      1.00000000</i>
   <i type="int" name="NKREDX">     1</i>
   <i type="int" name="NKREDY">     1</i>
   <i type="int" name="NKREDZ">     1</i>
   <i type="logical" name="SHIFTRED"> F  </i>
   <i type="logical" name="ODDONLY"> F  </i>
   <i type="logical" name="EVENONLY"> F  </i>
   <i type="int" name="LMAXFOCK">     0</i>
   <i type="int" name="NMAXFOCKAE">     0</i>
   <i type="logical" name="LFOCKAEDFT"> F  </i>
   <i name="HFSCREEN">      0.00000000</i>
   <i name="HFSCREENC">      0.00000000</i>
   <i type="int" name="NBANDSGWLOW">     0</i>
  </separator>
  <separator name="vdW DFT" >
   <i type="logical" name="LUSE_VDW"> F  </i>
   <i name="Zab_VDW">     -0.84910000</i>
   <i name="PARAM1">      0.12340000</i>
   <i name="PARAM2">      1.00000000</i>
   <i name="PARAM3">      0.00000000</i>
  </separator>
  <separator name="model GW" >
   <i type="int" name="MODEL_GW">     0</i>
   <i name="MODEL_EPS0">     17.04666266</i>
   <i name="MODEL_ALPHA">      1.00000000</i>
  </separator>
  <separator name="linear response parameters" >
   <i type="logical" name="LEPSILON"> F  </i>
   <i type="logical" name="LRPA"> F  </i>
   <i type="logical" name="LNABLA"> F  </i>
   <i type="logical" name="LVEL"> F  </i>
   <i type="int" name="KINTER">     0</i>
   <i name="CSHIFT">      0.10000000</i>
   <i name="OMEGAMAX">     -1.00000000</i>
   <i name="DEG_THRESHOLD">      0.00200000</i>
   <i name="RTIME">     -0.10000000</i>
   <i name="WPLASMAI">      0.00000000</i>
   <v name="DFIELD">      0.00000000      0.00000000      0.00000000</v>
   <v name="WPLASMA">      0.00000000      0.00000000      0.00000000      0.00000000      0.00000000      0.00000000      0.00000000      0.00000000      0.00000000</v>
  </separator>
  <separator name="orbital magnetization" >
   <i type="logical" name="NUCIND"> F  </i>
   <v name="MAGPOS">      0.00000000      0.00000000      0.00000000</v>
   <i type="logical" name="LNICSALL"> T  </i>
   <i type="logical" name="ORBITALMAG"> F  </i>
   <i type="logical" name="LMAGBLOCH"> F  </i>
   <i type="logical" name="LCHIMAG"> F  </i>
   <i type="logical" name="LGAUGE"> T  </i>
   <i type="int" name="MAGATOM">     0</i>
   <v name="MAGDIPOL">      0.00000000      0.00000000      0.00000000</v>
   <v name="AVECCONST">      0.00000000      0.00000000      0.00000000</v>
  </separator>
  <separator name="response functions" >
   <i type="logical" name="LADDER"> F  </i>
   <i type="logical" name="LRPAFORCE"> F  </i>
   <i type="logical" name="LFXC"> F  </i>
   <i type="logical" name="LHARTREE"> T  </i>
   <i type="int" name="IBSE">     0</i>
   <v type="int" name="KPOINT">    -1     0     0     0</v>
   <i type="logical" name="LTCTE"> F  </i>
   <i type="logical" name="LTETE"> F  </i>
   <i type="logical" name="LTRIPLET"> F  </i>
   <i type="logical" name="LFXCEPS"> F  </i>
   <i type="logical" name="LFXHEG"> F  </i>
   <i type="int" name="NATURALO">     2</i>
   <i type="logical" name="L2ORDER"> F  </i>
   <i type="logical" name="LMP2LT"> F  </i>
   <i type="logical" name="LUSEW"> F  </i>
   <i name="ENCUTGW">     -2.00000000</i>
   <i name="ENCUTGWSOFT">     -2.00000000</i>
   <i name="ENCUTLF">     -1.00000000</i>
   <i type="int" name="LMAXMP2">    -1</i>
   <i name="SCISSOR">      0.00000000</i>
   <i type="int" name="NOMEGA">     0</i>
   <i type="int" name="NOMEGAR">     0</i>
   <i type="int" name="NBANDSGW">    -1</i>
   <i type="int" name="NBANDSO">    -1</i>
   <i type="int" name="NBANDSV">    -1</i>
   <i type="int" name="NELM">     1</i>
   <i type="int" name="NELMHF">     1</i>
   <i type="int" name="DIM">     3</i>
   <i type="int" name="ANTIRES">     0</i>
   <i name="OMEGAMAX">    -30.00000000</i>
   <i name="OMEGAMIN">    -30.00000000</i>
   <i name="OMEGATL">   -200.00000000</i>
   <i type="int" name="OMEGAGRID">   140</i>
   <i name="CSHIFT">     -0.10000000</i>
   <i type="logical" name="SELFENERGY"> F  </i>
   <i type="logical" name="LSPECTRAL"> F  </i>
   <i type="logical" name="LSPECTRALGW"> F  </i>
   <i type="logical" name="LSINGLES"> F  </i>
   <i type="logical" name="LFERMIGW"> F  </i>
   <i type="logical" name="ODDONLYGW"> F  </i>
   <i type="logical" name="EVENONLYGW"> F  </i>
   <i type="int" name="NKREDLFX">     1</i>
   <i type="int" name="NKREDLFY">     1</i>
   <i type="int" name="NKREDLFZ">     1</i>
   <i type="int" name="MAXMEM">  2800</i>
   <i type="int" name="TELESCOPE">     0</i>
   <i type="int" name="TAUPAR">     1</i>
   <i type="int" name="OMEGAPAR">    -1</i>
   <i name="LAMBDA">      1.00000000</i>
  </separator>
  <separator name="External order field" >
   <i name="OFIELD_KAPPA">      0.00000000</i>
   <v name="OFIELD_K">      0.00000000      0.00000000      0.00000000</v>
   <i name="OFIELD_Q6_NEAR">      0.00000000</i>
   <i name="OFIELD_Q6_FAR">      0.00000000</i>
   <i name="OFIELD_A">      0.00000000</i>
  </separator>
 </parameters>
 <atominfo>
  <atoms>       4 </atoms>
  <types>       3 </types>
  <array name="atoms" >
   <dimension dim="1">ion</dimension>
   <field type="string">element</field>
   <field type="int">atomtype</field>
   <set>
    <rc><c>Ga</c><c>   1</c></rc>
    <rc><c>Ga</c><c>   1</c></rc>
    <rc><c>Bi</c><c>   2</c></rc>
    <rc><c>As</c><c>   3</c></rc>
   </set>
  </array>
  <array name="atomtypes" >
   <dimension dim="1">type</dimension>
   <field type="int">atomspertype</field>
   <field type="string">element</field>
   <field>mass</field>
   <field>valence</field>
   <field type="string">pseudopotential</field>
   <set>
    <rc><c>   2</c><c>Ga</c><c>     69.72300000</c><c>      3.00000000</c><c>  PAW_PBE Ga 08Apr2002                  </c></rc>
    <rc><c>   1</c><c>Bi</c><c>    208.98000000</c><c>     15.00000000</c><c>  PAW_PBE Bi_d 06Sep2000                </c></rc>
    <rc><c>   1</c><c>As</c><c>     74.92200000</c><c>      5.00000000</c><c>  PAW_PBE As 22Sep2009                  </c></rc>
   </set>
  </array>
 </atominfo>
 <structure name="initialpos" >
  <crystal>
   <varray name="basis" >
    <v>       4.30014086       0.00000000       0.00000000 </v>
    <v>       0.00000000       4.30014086       0.00000000 </v>
    <v>       0.00000000       0.00000000       6.14586115 </v>
   </varray>
   <i name="volume">    113.64441771 </i>
   <varray name="rec_basis" >
    <v>       0.23255052       0.00000000       0.00000000 </v>
    <v>       0.00000000       0.23255052       0.00000000 </v>
    <v>       0.00000000       0.00000000       0.16271113 </v>
   </varray>
  </crystal>
  <varray name="positions" >
   <v>       0.50000000       0.00000000       0.72573602 </v>
   <v>       0.00000000       0.50000000       0.27426400 </v>
   <v>       0.00000000       0.00000000       0.00000000 </v>
   <v>       0.50000000       0.50000000       0.50000000 </v>
  </varray>
 </structure>
 <calculation>
  <scstep>
   <time name="dav">    1.53    1.54</time>
   <time name="total">    1.61    1.61</time>
   <energy>
    <i name="alphaZ">     64.20128509 </i>
    <i name="ewald">  -1439.91766544 </i>
    <i name="hartreedc">   -749.41397116 </i>
    <i name="XCdc">     -1.78998093 </i>
    <i name="pawpsdc">   1946.54768465 </i>
    <i name="pawaedc">  -1848.13466329 </i>
    <i name="eentropy">     -0.00135949 </i>
    <i name="bandstr">   -228.24731293 </i>
    <i name="atom">   2247.12322143 </i>
    <i name="e_fr_energy">     -9.63276207 </i>
    <i name="e_wo_entrp">     -9.63140258 </i>
    <i name="e_0_energy">     -9.63208232 </i>
   </energy>
  </scstep>
  <scstep>
   <time name="dav">    1.20    1.20</time>
   <time name="total">    1.26    1.26</time>
   <energy>
    <i name="e_fr_energy">    -13.13942748 </i>
    <i name="e_wo_entrp">    -13.13603902 </i>
    <i name="e_0_energy">    -13.13773325 </i>
   </energy>
  </scstep>
  <scstep>
   <time name="dav">    1.35    1.35</time>
   <time name="total">    1.41    1.41</time>
   <energy>
    <i name="e_fr_energy">    -13.17502346 </i>
    <i name="e_wo_entrp">    -13.17170422 </i>
    <i name="e_0_energy">    -13.17336384 </i>
   </energy>
  </scstep>
  <scstep>
   <time name="dav">    1.35    1.35</time>
   <time name="total">    1.41    1.41</time>
   <energy>
    <i name="e_fr_energy">    -13.16357134 </i>
    <i name="e_wo_entrp">    -13.16019774 </i>
    <i name="e_0_energy">    -13.16188454 </i>
   </energy>
  </scstep>
  <scstep>
   <time name="dav">    1.22    1.22</time>
   <time name="total">    1.28    1.28</time>
   <energy>
    <i name="e_fr_energy">    -13.16549207 </i>
    <i name="e_wo_entrp">    -13.16211562 </i>
    <i name="e_0_energy">    -13.16380384 </i>
   </energy>
  </scstep>
  <scstep>
   <time name="dav">    1.18    1.18</time>
   <time name="total">    1.24    1.24</time>
   <energy>
    <i name="e_fr_energy">    -13.16632149 </i>
    <i name="e_wo_entrp">    -13.16297230 </i>
    <i name="e_0_energy">    -13.16464690 </i>
   </energy>
  </scstep>
  <scstep>
   <time name="dav">    1.24    1.24</time>
   <time name="total">    1.30    1.30</time>
   <energy>
    <i name="e_fr_energy">    -13.16642682 </i>
    <i name="e_wo_entrp">    -13.16308019 </i>
    <i name="e_0_energy">    -13.16475350 </i>
   </energy>
  </scstep>
  <scstep>
   <time name="dav">    1.17    1.17</time>
   <time name="total">    1.22    1.23</time>
   <energy>
    <i name="e_fr_energy">    -13.16646257 </i>
    <i name="e_wo_entrp">    -13.16311672 </i>
    <i name="e_0_energy">    -13.16478965 </i>
   </energy>
  </scstep>
  <scstep>
   <time name="dav">    1.06    1.06</time>
   <time name="total">    1.07    1.07</time>
   <energy>
    <i name="alphaZ">     64.20128509 </i>
    <i name="ewald">  -1439.91766544 </i>
    <i name="hartreedc">   -754.95443898 </i>
    <i name="XCdc">     -0.86584159 </i>
    <i name="pawpsdc">   2433.89075788 </i>
    <i name="pawaedc">  -2338.89441294 </i>
    <i name="eentropy">     -0.00334401 </i>
    <i name="bandstr">   -223.74602676 </i>
    <i name="atom">   2247.12322143 </i>
    <i name="e_fr_energy">    -13.16646533 </i>
    <i name="e_wo_entrp">    -13.16312131 </i>
    <i name="e_0_energy">    -13.16479332 </i>
   </energy>
  </scstep>
  <structure>
   <crystal>
    <varray name="basis" >
     <v>       4.30014086       0.00000000       0.00000000 </v>
     <v>       0.00000000       4.30014086       0.00000000 </v>
     <v>       0.00000000       0.00000000       6.14586115 </v>
    </varray>
    <i name="volume">    113.64441771 </i>
    <varray name="rec_basis" >
     <v>       0.23255052       0.00000000       0.00000000 </v>
     <v>       0.00000000       0.23255052       0.00000000 </v>
     <v>       0.00000000       0.00000000       0.16271113 </v>
    </varray>
   </crystal>
   <varray name="positions" >
    <v>       0.50000000       0.00000000       0.72573602 </v>
    <v>       0.00000000       0.50000000       0.27426400 </v>
    <v>       0.00000000       0.00000000       0.00000000 </v>
    <v>       0.50000000       0.50000000       0.50000000 </v>
   </varray>
  </structure>
  <varray name="forces" >
   <v>      -0.00000000       0.00000000      -0.21577094 </v>
   <v>      -0.00000000       0.00000000       0.21577094 </v>
   <v>      -0.00000000       0.00000000       0.00000000 </v>
   <v>       0.00000000      -0.00000000       0.00000000 </v>
  </varray>
  <varray name="stress" >
   <v>      54.91945340       0.00000000       0.00000000 </v>
   <v>       0.00000000      54.91945340       0.00000000 </v>
   <v>       0.00000000       0.00000000       6.11457699 </v>
  </varray>
  <energy>
   <i name="e_fr_energy">    -13.16646533 </i>
   <i name="e_wo_entrp">    -13.16479332 </i>
   <i name="e_0_energy">     -0.00334401 </i>
  </energy>
  <time name="totalsc">   12.67   12.70</time>
  <eigenvalues>
   <array>
    <dimension dim="1">band</dimension>
    <dimension dim="2">kpoint</dimension>
    <dimension dim="3">spin</dimension>
    <field>eigene</field>
    <field>occ</field>
    <set>
     <set comment="spin 1">
      <set comment="kpoint 1">
       <r>  -19.2405    1.0000 </r>
       <r>  -19.2405    1.0000 </r>
       <r>  -19.2371    1.0000 </r>
       <r>  -19.2288    1.0000 </r>
       <r>  -19.1725    1.0000 </r>
       <r>   -9.1009    1.0000 </r>
       <r>   -7.3482    1.0000 </r>
       <r>   -3.4823    1.0000 </r>
       <r>    0.5539    1.0000 </r>
       <r>    0.5539    1.0000 </r>
       <r>    1.9251    1.0000 </r>
       <r>    2.9915    1.0000 </r>
       <r>    3.2197    0.2155 </r>
       <r>    3.2197    0.2155 </r>
       <r>    4.2044    0.0000 </r>
       <r>    4.4209    0.0000 </r>
       <r>    6.2257    0.0000 </r>
       <r>    6.2257    0.0000 </r>
       <r>    6.3728    0.0000 </r>
       <r>    8.9501    0.0000 </r>
      </set>
      <set comment="kpoint 2">
       <r>  -19.2406    1.0000 </r>
       <r>  -19.2405    1.0000 </r>
       <r>  -19.2371    1.0000 </r>
       <r>  -19.2287    1.0000 </r>
       <r>  -19.1726    1.0000 </r>
       <r>   -9.0969    1.0000 </r>
       <r>   -7.3478    1.0000 </r>
       <r>   -3.4805    1.0000 </r>
       <r>    0.5250    1.0000 </r>
       <r>    0.5578    1.0000 </r>
       <r>    1.8754    1.0000 </r>
       <r>    2.9748    1.0000 </r>
       <r>    3.2176    0.2335 </r>
       <r>    3.2471    0.0592 </r>
       <r>    4.2269    0.0000 </r>
       <r>    4.4538    0.0000 </r>
       <r>    6.2227    0.0000 </r>
       <r>    6.2301    0.0000 </r>
       <r>    6.3979    0.0000 </r>
       <r>    8.9822    0.0000 </r>
      </set>
      <set comment="kpoint 3">
       <r>  -19.2410    1.0000 </r>
       <r>  -19.2405    1.0000 </r>
       <r>  -19.2370    1.0000 </r>
       <r>  -19.2282    1.0000 </r>
       <r>  -19.1727    1.0000 </r>
       <r>   -9.0846    1.0000 </r>
       <r>   -7.3468    1.0000 </r>
       <r>   -3.4750    1.0000 </r>
       <r>    0.4435    1.0000 </r>
       <r>    0.5693    1.0000 </r>
       <r>    1.7376    1.0000 </r>
       <r>    2.9254    1.0000 </r>
       <r>    3.2112    0.2926 </r>
       <r>    3.3220    0.0001 </r>
       <r>    4.2784    0.0000 </r>
       <r>    4.5589    0.0000 </r>
       <r>    6.2155    0.0000 </r>
       <r>    6.2435    0.0000 </r>
       <r>    6.4730    0.0000 </r>
       <r>    9.0755    0.0000 </r>
      </set>
      <set comment="kpoint 4">
       <r>  -19.2415    1.0000 </r>
       <r>  -19.2405    1.0000 </r>
       <r>  -19.2368    1.0000 </r>
       <r>  -19.2275    1.0000 </r>
       <r>  -19.1728    1.0000 </r>
       <r>   -9.0643    1.0000 </r>
       <r>   -7.3454    1.0000 </r>
       <r>   -3.4661    1.0000 </r>
       <r>    0.3224    1.0000 </r>
       <r>    0.5884    1.0000 </r>
       <r>    1.5366    1.0000 </r>
       <r>    2.8446    1.0000 </r>
       <r>    3.2003    0.4061 </r>
       <r>    3.4272    0.0000 </r>
       <r>    4.3402    0.0000 </r>
       <r>    4.7348    0.0000 </r>
       <r>    6.2091    0.0000 </r>
       <r>    6.2657    0.0000 </r>
       <r>    6.5964    0.0000 </r>
       <r>    9.2223    0.0000 </r>
      </set>
      <set comment="kpoint 5">
       <r>  -19.2421    1.0000 </r>
       <r>  -19.2405    1.0000 </r>
       <r>  -19.2367    1.0000 </r>
       <r>  -19.2265    1.0000 </r>
       <r>  -19.1731    1.0000 </r>
       <r>   -9.0359    1.0000 </r>
       <r>   -7.3440    1.0000 </r>
       <r>   -3.4539    1.0000 </r>
       <r>    0.1765    1.0000 </r>
       <r>    0.6150    1.0000 </r>
       <r>    1.2965    1.0000 </r>
       <r>    2.7348    1.0000 </r>
       <r>    3.1847    0.5808 </r>
       <r>    3.5438    0.0000 </r>
       <r>    4.4104    0.0000 </r>
       <r>    4.9652    0.0000 </r>
       <r>    6.2092    0.0000 </r>
       <r>    6.2970    0.0000 </r>
       <r>    6.7641    0.0000 </r>
       <r>    9.4121    0.0000 </r>
      </set>
      <set comment="kpoint 6">
       <r>  -19.2429    1.0000 </r>
       <r>  -19.2404    1.0000 </r>
       <r>  -19.2366    1.0000 </r>
       <r>  -19.2253    1.0000 </r>
       <r>  -19.1733    1.0000 </r>
       <r>   -8.9997    1.0000 </r>
       <r>   -7.3435    1.0000 </r>
       <r>   -3.4385    1.0000 </r>
       <r>    0.0186    1.0000 </r>
       <r>    0.6487    1.0000 </r>
       <r>    1.0356    1.0000 </r>
       <r>    2.5991    1.0000 </r>
       <r>    3.1640    0.7844 </r>
       <r>    3.6579    0.0000 </r>
       <r>    4.4897    0.0000 </r>
       <r>    5.2363    0.0000 </r>
       <r>    6.2206    0.0000 </r>
       <r>    6.3374    0.0000 </r>
       <r>    6.9686    0.0000 </r>
       <r>    9.6323    0.0000 </r>
      </set>
      <set comment="kpoint 7">
       <r>  -19.2437    1.0000 </r>
       <r>  -19.2404    1.0000 </r>
       <r>  -19.2365    1.0000 </r>
       <r>  -19.2239    1.0000 </r>
       <r>  -19.1736    1.0000 </r>
       <r>   -8.9559    1.0000 </r>
       <r>   -7.3446    1.0000 </r>
       <r>   -3.4201    1.0000 </r>
       <r>   -0.1424    1.0000 </r>
       <r>    0.6893    1.0000 </r>
       <r>    0.7673    1.0000 </r>
       <r>    2.4415    1.0000 </r>
       <r>    3.1381    0.9358 </r>
       <r>    3.7627    0.0000 </r>
       <r>    4.5757    0.0000 </r>
       <r>    5.5391    0.0000 </r>
       <r>    6.2472    0.0000 </r>
       <r>    6.3870    0.0000 </r>
       <r>    7.1983    0.0000 </r>
       <r>    9.8654    0.0000 </r>
      </set>
      <set comment="kpoint 8">
       <r>  -19.2445    1.0000 </r>
       <r>  -19.2403    1.0000 </r>
       <r>  -19.2364    1.0000 </r>
       <r>  -19.2224    1.0000 </r>
       <r>  -19.1740    1.0000 </r>
       <r>   -8.9048    1.0000 </r>
       <r>   -7.3483    1.0000 </r>
       <r>   -3.3988    1.0000 </r>
       <r>   -0.3013    1.0000 </r>
       <r>    0.5024    1.0000 </r>
       <r>    0.7364    1.0000 </r>
       <r>    2.2664    1.0000 </r>
       <r>    3.1066    0.9921 </r>
       <r>    3.8571    0.0000 </r>
       <r>    4.6654    0.0000 </r>
       <r>    5.8639    0.0000 </r>
       <r>    6.2932    0.0000 </r>
       <r>    6.4461    0.0000 </r>
       <r>    7.4388    0.0000 </r>
       <r>   10.0369    0.0000 </r>
      </set>
      <set comment="kpoint 9">
       <r>  -19.2454    1.0000 </r>
       <r>  -19.2403    1.0000 </r>
       <r>  -19.2363    1.0000 </r>
       <r>  -19.2208    1.0000 </r>
       <r>  -19.1743    1.0000 </r>
       <r>   -8.8465    1.0000 </r>
       <r>   -7.3557    1.0000 </r>
       <r>   -3.3743    1.0000 </r>
       <r>   -0.4578    1.0000 </r>
       <r>    0.2515    1.0000 </r>
       <r>    0.7894    1.0000 </r>
       <r>    2.0782    1.0000 </r>
       <r>    3.0694    0.9997 </r>
       <r>    3.9430    0.0000 </r>
       <r>    4.7565    0.0000 </r>
       <r>    6.1819    0.0000 </r>
       <r>    6.3799    0.0000 </r>
       <r>    6.5148    0.0000 </r>
       <r>    7.6737    0.0000 </r>
       <r>    9.9434    0.0000 </r>
      </set>
      <set comment="kpoint 10">
       <r>  -19.2463    1.0000 </r>
       <r>  -19.2402    1.0000 </r>
       <r>  -19.2362    1.0000 </r>
       <r>  -19.2191    1.0000 </r>
       <r>  -19.1747    1.0000 </r>
       <r>   -8.7816    1.0000 </r>
       <r>   -7.3680    1.0000 </r>
       <r>   -3.3462    1.0000 </r>
       <r>   -0.6169    1.0000 </r>
       <r>    0.0278    1.0000 </r>
       <r>    0.8477    1.0000 </r>
       <r>    1.8809    1.0000 </r>
       <r>    3.0264    1.0000 </r>
       <r>    4.0227    0.0000 </r>
       <r>    4.8477    0.0000 </r>
       <r>    6.3645    0.0000 </r>
       <r>    6.5933    0.0000 </r>
       <r>    6.6243    0.0000 </r>
       <r>    7.8877    0.0000 </r>
       <r>    9.7410    0.0000 </r>
      </set>
      <set comment="kpoint 11">
       <r>  -19.2472    1.0000 </r>
       <r>  -19.2401    1.0000 </r>
       <r>  -19.2361    1.0000 </r>
       <r>  -19.2174    1.0000 </r>
       <r>  -19.1751    1.0000 </r>
       <r>   -8.7105    1.0000 </r>
       <r>   -7.3864    1.0000 </r>
       <r>   -3.3136    1.0000 </r>
       <r>   -0.7879    1.0000 </r>
       <r>   -0.1538    1.0000 </r>
       <r>    0.9105    1.0000 </r>
       <r>    1.6782    1.0000 </r>
       <r>    2.9780    1.0000 </r>
       <r>    4.0981    0.0000 </r>
       <r>    4.9382    0.0000 </r>
       <r>    6.4645    0.0000 </r>
       <r>    6.6816    0.0000 </r>
       <r>    6.9560    0.0000 </r>
       <r>    8.0724    0.0000 </r>
       <r>    9.5467    0.0000 </r>
      </set>
      <set comment="kpoint 12">
       <r>  -19.2481    1.0000 </r>
       <r>  -19.2401    1.0000 </r>
       <r>  -19.2361    1.0000 </r>
       <r>  -19.2157    1.0000 </r>
       <r>  -19.1755    1.0000 </r>
       <r>   -8.6336    1.0000 </r>
       <r>   -7.4119    1.0000 </r>
       <r>   -3.2753    1.0000 </r>
       <r>   -0.9778    1.0000 </r>
       <r>   -0.2825    1.0000 </r>
       <r>    0.9768    1.0000 </r>
       <r>    1.4735    1.0000 </r>
       <r>    2.9248    1.0000 </r>
       <r>    4.1699    0.0000 </r>
       <r>    5.0274    0.0000 </r>
       <r>    6.5652    0.0000 </r>
       <r>    6.7800    0.0000 </r>
       <r>    7.2631    0.0000 </r>
       <r>    8.2341    0.0000 </r>
       <r>    9.3842    0.0000 </r>
      </set>
      <set comment="kpoint 13">
       <r>  -19.2489    1.0000 </r>
       <r>  -19.2400    1.0000 </r>
       <r>  -19.2360    1.0000 </r>
       <r>  -19.2141    1.0000 </r>
       <r>  -19.1759    1.0000 </r>
       <r>   -8.5517    1.0000 </r>
       <r>   -7.4455    1.0000 </r>
       <r>   -3.2299    1.0000 </r>
       <r>   -1.1837    1.0000 </r>
       <r>   -0.3586    1.0000 </r>
       <r>    1.0453    1.0000 </r>
       <r>    1.2695    1.0000 </r>
       <r>    2.8678    1.0000 </r>
       <r>    4.2382    0.0000 </r>
       <r>    5.1145    0.0000 </r>
       <r>    6.6744    0.0000 </r>
       <r>    6.8886    0.0000 </r>
       <r>    7.4973    0.0000 </r>
       <r>    8.3919    0.0000 </r>
       <r>    9.2332    0.0000 </r>
      </set>
      <set comment="kpoint 14">
       <r>  -19.2497    1.0000 </r>
       <r>  -19.2399    1.0000 </r>
       <r>  -19.2360    1.0000 </r>
       <r>  -19.2126    1.0000 </r>
       <r>  -19.1762    1.0000 </r>
       <r>   -8.4655    1.0000 </r>
       <r>   -7.4876    1.0000 </r>
       <r>   -3.1757    1.0000 </r>
       <r>   -1.3967    1.0000 </r>
       <r>   -0.3900    1.0000 </r>
       <r>    1.0687    1.0000 </r>
       <r>    1.1144    1.0000 </r>
       <r>    2.8084    1.0000 </r>
       <r>    4.3024    0.0000 </r>
       <r>    5.1981    0.0000 </r>
       <r>    6.7923    0.0000 </r>
       <r>    7.0073    0.0000 </r>
       <r>    7.6300    0.0000 </r>
       <r>    8.5384    0.0000 </r>
       <r>    9.0663    0.0000 </r>
      </set>
      <set comment="kpoint 15">
       <r>  -19.2503    1.0000 </r>
       <r>  -19.2399    1.0000 </r>
       <r>  -19.2360    1.0000 </r>
       <r>  -19.2113    1.0000 </r>
       <r>  -19.1765    1.0000 </r>
       <r>   -8.3759    1.0000 </r>
       <r>   -7.5387    1.0000 </r>
       <r>   -3.1110    1.0000 </r>
       <r>   -1.6082    1.0000 </r>
       <r>   -0.3844    1.0000 </r>
       <r>    0.8733    1.0000 </r>
       <r>    1.1818    1.0000 </r>
       <r>    2.7488    1.0000 </r>
       <r>    4.3613    0.0000 </r>
       <r>    5.2763    0.0000 </r>
       <r>    6.9173    0.0000 </r>
       <r>    7.1361    0.0000 </r>
       <r>    7.6763    0.0000 </r>
       <r>    8.6065    0.0000 </r>
       <r>    8.9245    0.0000 </r>
      </set>
      <set comment="kpoint 16">
       <r>  -19.2509    1.0000 </r>
       <r>  -19.2399    1.0000 </r>
       <r>  -19.2359    1.0000 </r>
       <r>  -19.2102    1.0000 </r>
       <r>  -19.1768    1.0000 </r>
       <r>   -8.2837    1.0000 </r>
       <r>   -7.5984    1.0000 </r>
       <r>   -3.0348    1.0000 </r>
       <r>   -1.8122    1.0000 </r>
       <r>   -0.3479    1.0000 </r>
       <r>    0.6853    1.0000 </r>
       <r>    1.2450    1.0000 </r>
       <r>    2.6917    1.0000 </r>
       <r>    4.4132    0.0000 </r>
       <r>    5.3466    0.0000 </r>
       <r>    7.0466    0.0000 </r>
       <r>    7.2750    0.0000 </r>
       <r>    7.6714    0.0000 </r>
       <r>    8.5741    0.0000 </r>
       <r>    8.7086    0.0000 </r>
      </set>
      <set comment="kpoint 17">
       <r>  -19.2514    1.0000 </r>
       <r>  -19.2398    1.0000 </r>
       <r>  -19.2359    1.0000 </r>
       <r>  -19.2092    1.0000 </r>
       <r>  -19.1770    1.0000 </r>
       <r>   -8.1900    1.0000 </r>
       <r>   -7.6664    1.0000 </r>
       <r>   -2.9467    1.0000 </r>
       <r>   -2.0040    1.0000 </r>
       <r>   -0.2850    1.0000 </r>
       <r>    0.5066    1.0000 </r>
       <r>    1.3007    1.0000 </r>
       <r>    2.6407    1.0000 </r>
       <r>    4.4564    0.0000 </r>
       <r>    5.4061    0.0000 </r>
       <r>    7.1755    0.0000 </r>
       <r>    7.4238    0.0000 </r>
       <r>    7.6422    0.0000 </r>
       <r>    8.4996    0.0000 </r>
       <r>    8.5066    0.0000 </r>
      </set>
      <set comment="kpoint 18">
       <r>  -19.2517    1.0000 </r>
       <r>  -19.2398    1.0000 </r>
       <r>  -19.2359    1.0000 </r>
       <r>  -19.2086    1.0000 </r>
       <r>  -19.1772    1.0000 </r>
       <r>   -8.0962    1.0000 </r>
       <r>   -7.7418    1.0000 </r>
       <r>   -2.8489    1.0000 </r>
       <r>   -2.1779    1.0000 </r>
       <r>   -0.1994    1.0000 </r>
       <r>    0.3394    1.0000 </r>
       <r>    1.3448    1.0000 </r>
       <r>    2.5996    1.0000 </r>
       <r>    4.4890    0.0000 </r>
       <r>    5.4517    0.0000 </r>
       <r>    7.2969    0.0000 </r>
       <r>    7.5821    0.0000 </r>
       <r>    7.6029    0.0000 </r>
       <r>    8.3027    0.0000 </r>
       <r>    8.4424    0.0000 </r>
      </set>
      <set comment="kpoint 19">
       <r>  -19.2519    1.0000 </r>
       <r>  -19.2398    1.0000 </r>
       <r>  -19.2359    1.0000 </r>
       <r>  -19.2082    1.0000 </r>
       <r>  -19.1773    1.0000 </r>
       <r>   -8.0039    1.0000 </r>
       <r>   -7.8229    1.0000 </r>
       <r>   -2.7515    1.0000 </r>
       <r>   -2.3217    1.0000 </r>
       <r>   -0.0957    1.0000 </r>
       <r>    0.1870    1.0000 </r>
       <r>    1.3734    1.0000 </r>
       <r>    2.5728    1.0000 </r>
       <r>    4.5092    0.0000 </r>
       <r>    5.4804    0.0000 </r>
       <r>    7.4004    0.0000 </r>
       <r>    7.5583    0.0000 </r>
       <r>    7.7495    0.0000 </r>
       <r>    8.1101    0.0000 </r>
       <r>    8.4052    0.0000 </r>
      </set>
      <set comment="kpoint 20">
       <r>  -19.2520    1.0000 </r>
       <r>  -19.2398    1.0000 </r>
       <r>  -19.2359    1.0000 </r>
       <r>  -19.2080    1.0000 </r>
       <r>  -19.1773    1.0000 </r>
       <r>   -7.9285    1.0000 </r>
       <r>   -7.8946    1.0000 </r>
       <r>   -2.6993    1.0000 </r>
       <r>   -2.3896    1.0000 </r>
       <r>   -0.0083    1.0000 </r>
       <r>    0.0835    1.0000 </r>
       <r>    1.3833    1.0000 </r>
       <r>    2.5635    1.0000 </r>
       <r>    4.5161    0.0000 </r>
       <r>    5.4902    0.0000 </r>
       <r>    7.4590    0.0000 </r>
       <r>    7.5219    0.0000 </r>
       <r>    7.9207    0.0000 </r>
       <r>    7.9309    0.0000 </r>
       <r>    8.3857    0.0000 </r>
      </set>
      <set comment="kpoint 21">
       <r>  -19.2520    1.0000 </r>
       <r>  -19.2398    1.0000 </r>
       <r>  -19.2359    1.0000 </r>
       <r>  -19.2080    1.0000 </r>
       <r>  -19.1773    1.0000 </r>
       <r>   -7.9285    1.0000 </r>
       <r>   -7.8946    1.0000 </r>
       <r>   -2.6993    1.0000 </r>
       <r>   -2.3896    1.0000 </r>
       <r>   -0.0083    1.0000 </r>
       <r>    0.0835    1.0000 </r>
       <r>    1.3833    1.0000 </r>
       <r>    2.5635    1.0000 </r>
       <r>    4.5161    0.0000 </r>
       <r>    5.4902    0.0000 </r>
       <r>    7.4590    0.0000 </r>
       <r>    7.5219    0.0000 </r>
       <r>    7.9207    0.0000 </r>
       <r>    7.9309    0.0000 </r>
       <r>    8.3841    0.0000 </r>
      </set>
      <set comment="kpoint 22">
       <r>  -19.2520    1.0000 </r>
       <r>  -19.2399    1.0000 </r>
       <r>  -19.2358    1.0000 </r>
       <r>  -19.2079    1.0000 </r>
       <r>  -19.1773    1.0000 </r>
       <r>   -7.9251    1.0000 </r>
       <r>   -7.8915    1.0000 </r>
       <r>   -2.7018    1.0000 </r>
       <r>   -2.3942    1.0000 </r>
       <r>   -0.0042    1.0000 </r>
       <r>    0.0864    1.0000 </r>
       <r>    1.3596    1.0000 </r>
       <r>    2.5265    1.0000 </r>
       <r>    4.5539    0.0000 </r>
       <r>    5.5308    0.0000 </r>
       <r>    7.3415    0.0000 </r>
       <r>    7.4552    0.0000 </r>
       <r>    7.8361    0.0000 </r>
       <r>    8.0225    0.0000 </r>
       <r>    8.4996    0.0000 </r>
      </set>
      <set comment="kpoint 23">
       <r>  -19.2520    1.0000 </r>
       <r>  -19.2402    1.0000 </r>
       <r>  -19.2355    1.0000 </r>
       <r>  -19.2076    1.0000 </r>
       <r>  -19.1774    1.0000 </r>
       <r>   -7.9148    1.0000 </r>
       <r>   -7.8822    1.0000 </r>
       <r>   -2.7095    1.0000 </r>
       <r>   -2.4080    1.0000 </r>
       <r>    0.0080    1.0000 </r>
       <r>    0.0953    1.0000 </r>
       <r>    1.2930    1.0000 </r>
       <r>    2.4234    1.0000 </r>
       <r>    4.6615    0.0000 </r>
       <r>    5.6399    0.0000 </r>
       <r>    7.1206    0.0000 </r>
       <r>    7.2631    0.0000 </r>
       <r>    7.7173    0.0000 </r>
       <r>    8.1402    0.0000 </r>
       <r>    8.4794    0.0000 </r>
      </set>
      <set comment="kpoint 24">
       <r>  -19.2519    1.0000 </r>
       <r>  -19.2407    1.0000 </r>
       <r>  -19.2351    1.0000 </r>
       <r>  -19.2072    1.0000 </r>
       <r>  -19.1776    1.0000 </r>
       <r>   -7.8978    1.0000 </r>
       <r>   -7.8670    1.0000 </r>
       <r>   -2.7228    1.0000 </r>
       <r>   -2.4314    1.0000 </r>
       <r>    0.0282    1.0000 </r>
       <r>    0.1098    1.0000 </r>
       <r>    1.1951    1.0000 </r>
       <r>    2.2729    1.0000 </r>
       <r>    4.8234    0.0000 </r>
       <r>    5.7834    0.0000 </r>
       <r>    6.8843    0.0000 </r>
       <r>    7.0037    0.0000 </r>
       <r>    7.6418    0.0000 </r>
       <r>    8.0656    0.0000 </r>
       <r>    8.6289    0.0000 </r>
      </set>
      <set comment="kpoint 25">
       <r>  -19.2519    1.0000 </r>
       <r>  -19.2413    1.0000 </r>
       <r>  -19.2346    1.0000 </r>
       <r>  -19.2066    1.0000 </r>
       <r>  -19.1778    1.0000 </r>
       <r>   -7.8743    1.0000 </r>
       <r>   -7.8459    1.0000 </r>
       <r>   -2.7420    1.0000 </r>
       <r>   -2.4649    1.0000 </r>
       <r>    0.0561    1.0000 </r>
       <r>    0.1295    1.0000 </r>
       <r>    1.0796    1.0000 </r>
       <r>    2.0951    1.0000 </r>
       <r>    5.0162    0.0000 </r>
       <r>    5.9091    0.0000 </r>
       <r>    6.6569    0.0000 </r>
       <r>    6.7286    0.0000 </r>
       <r>    7.6228    0.0000 </r>
       <r>    7.8948    0.0000 </r>
       <r>    8.8537    0.0000 </r>
      </set>
      <set comment="kpoint 26">
       <r>  -19.2518    1.0000 </r>
       <r>  -19.2420    1.0000 </r>
       <r>  -19.2340    1.0000 </r>
       <r>  -19.2058    1.0000 </r>
       <r>  -19.1781    1.0000 </r>
       <r>   -7.8446    1.0000 </r>
       <r>   -7.8193    1.0000 </r>
       <r>   -2.7678    1.0000 </r>
       <r>   -2.5091    1.0000 </r>
       <r>    0.0913    1.0000 </r>
       <r>    0.1537    1.0000 </r>
       <r>    0.9592    1.0000 </r>
       <r>    1.9067    1.0000 </r>
       <r>    5.2064    0.0000 </r>
       <r>    5.9561    0.0000 </r>
       <r>    6.4562    0.0000 </r>
       <r>    6.4637    0.0000 </r>
       <r>    7.6980    0.0000 </r>
       <r>    7.7131    0.0000 </r>
       <r>    9.0889    0.0000 </r>
      </set>
      <set comment="kpoint 27">
       <r>  -19.2518    1.0000 </r>
       <r>  -19.2428    1.0000 </r>
       <r>  -19.2335    1.0000 </r>
       <r>  -19.2049    1.0000 </r>
       <r>  -19.1785    1.0000 </r>
       <r>   -7.8093    1.0000 </r>
       <r>   -7.7876    1.0000 </r>
       <r>   -2.8009    1.0000 </r>
       <r>   -2.5643    1.0000 </r>
       <r>    0.1332    1.0000 </r>
       <r>    0.1813    1.0000 </r>
       <r>    0.8443    1.0000 </r>
       <r>    1.7199    1.0000 </r>
       <r>    5.3435    0.0000 </r>
       <r>    5.8827    0.0000 </r>
       <r>    6.2289    0.0000 </r>
       <r>    6.3055    0.0000 </r>
       <r>    7.5638    0.0000 </r>
       <r>    7.8902    0.0000 </r>
       <r>    9.3202    0.0000 </r>
      </set>
      <set comment="kpoint 28">
       <r>  -19.2517    1.0000 </r>
       <r>  -19.2437    1.0000 </r>
       <r>  -19.2329    1.0000 </r>
       <r>  -19.2038    1.0000 </r>
       <r>  -19.1789    1.0000 </r>
       <r>   -7.7688    1.0000 </r>
       <r>   -7.7514    1.0000 </r>
       <r>   -2.8416    1.0000 </r>
       <r>   -2.6304    1.0000 </r>
       <r>    0.1813    1.0000 </r>
       <r>    0.2110    1.0000 </r>
       <r>    0.7426    1.0000 </r>
       <r>    1.5433    1.0000 </r>
       <r>    5.3712    0.0000 </r>
       <r>    5.7042    0.0000 </r>
       <r>    6.0266    0.0000 </r>
       <r>    6.2171    0.0000 </r>
       <r>    7.4960    0.0000 </r>
       <r>    8.1834    0.0000 </r>
       <r>    9.5428    0.0000 </r>
      </set>
      <set comment="kpoint 29">
       <r>  -19.2516    1.0000 </r>
       <r>  -19.2445    1.0000 </r>
       <r>  -19.2324    1.0000 </r>
       <r>  -19.2026    1.0000 </r>
       <r>  -19.1793    1.0000 </r>
       <r>   -7.7239    1.0000 </r>
       <r>   -7.7112    1.0000 </r>
       <r>   -2.8902    1.0000 </r>
       <r>   -2.7066    1.0000 </r>
       <r>    0.2345    1.0000 </r>
       <r>    0.2406    1.0000 </r>
       <r>    0.6597    1.0000 </r>
       <r>    1.3828    1.0000 </r>
       <r>    5.2897    0.0000 </r>
       <r>    5.4785    0.0000 </r>
       <r>    5.8319    0.0000 </r>
       <r>    6.1431    0.0000 </r>
       <r>    7.5597    0.0000 </r>
       <r>    8.5460    0.0000 </r>
       <r>    9.7545    0.0000 </r>
      </set>
      <set comment="kpoint 30">
       <r>  -19.2516    1.0000 </r>
       <r>  -19.2454    1.0000 </r>
       <r>  -19.2319    1.0000 </r>
       <r>  -19.2013    1.0000 </r>
       <r>  -19.1797    1.0000 </r>
       <r>   -7.6754    1.0000 </r>
       <r>   -7.6680    1.0000 </r>
       <r>   -2.9464    1.0000 </r>
       <r>   -2.7915    1.0000 </r>
       <r>    0.2676    1.0000 </r>
       <r>    0.2917    1.0000 </r>
       <r>    0.5996    1.0000 </r>
       <r>    1.2423    1.0000 </r>
       <r>    5.1509    0.0000 </r>
       <r>    5.2445    0.0000 </r>
       <r>    5.6325    0.0000 </r>
       <r>    6.0263    0.0000 </r>
       <r>    7.7621    0.0000 </r>
       <r>    8.9525    0.0000 </r>
       <r>    9.9545    0.0000 </r>
      </set>
      <set comment="kpoint 31">
       <r>  -19.2515    1.0000 </r>
       <r>  -19.2463    1.0000 </r>
       <r>  -19.2314    1.0000 </r>
       <r>  -19.2000    1.0000 </r>
       <r>  -19.1802    1.0000 </r>
       <r>   -7.6244    1.0000 </r>
       <r>   -7.6225    1.0000 </r>
       <r>   -3.0093    1.0000 </r>
       <r>   -2.8828    1.0000 </r>
       <r>    0.2893    1.0000 </r>
       <r>    0.3514    1.0000 </r>
       <r>    0.5642    1.0000 </r>
       <r>    1.1240    1.0000 </r>
       <r>    4.9950    0.0000 </r>
       <r>    5.0177    0.0000 </r>
       <r>    5.4305    0.0000 </r>
       <r>    5.8665    0.0000 </r>
       <r>    8.0640    0.0000 </r>
       <r>    9.3850    0.0000 </r>
       <r>   10.1423    0.0000 </r>
      </set>
      <set comment="kpoint 32">
       <r>  -19.2514    1.0000 </r>
       <r>  -19.2472    1.0000 </r>
       <r>  -19.2310    1.0000 </r>
       <r>  -19.1987    1.0000 </r>
       <r>  -19.1806    1.0000 </r>
       <r>   -7.5760    1.0000 </r>
       <r>   -7.5720    1.0000 </r>
       <r>   -3.0773    1.0000 </r>
       <r>   -2.9779    1.0000 </r>
       <r>    0.3048    1.0000 </r>
       <r>    0.4115    1.0000 </r>
       <r>    0.5524    1.0000 </r>
       <r>    1.0291    1.0000 </r>
       <r>    4.8047    0.0000 </r>
       <r>    4.8415    0.0000 </r>
       <r>    5.2312    0.0000 </r>
       <r>    5.6852    0.0000 </r>
       <r>    8.4253    0.0000 </r>
       <r>    9.8286    0.0000 </r>
       <r>   10.3179    0.0000 </r>
      </set>
      <set comment="kpoint 33">
       <r>  -19.2513    1.0000 </r>
       <r>  -19.2480    1.0000 </r>
       <r>  -19.2306    1.0000 </r>
       <r>  -19.1974    1.0000 </r>
       <r>  -19.1810    1.0000 </r>
       <r>   -7.5296    1.0000 </r>
       <r>   -7.5198    1.0000 </r>
       <r>   -3.1483    1.0000 </r>
       <r>   -3.0732    1.0000 </r>
       <r>    0.3167    1.0000 </r>
       <r>    0.4696    1.0000 </r>
       <r>    0.5583    1.0000 </r>
       <r>    0.9576    1.0000 </r>
       <r>    4.6096    0.0000 </r>
       <r>    4.6999    0.0000 </r>
       <r>    5.0396    0.0000 </r>
       <r>    5.4987    0.0000 </r>
       <r>    8.8203    0.0000 </r>
       <r>   10.2631    0.0000 </r>
       <r>   10.4811    0.0000 </r>
      </set>
      <set comment="kpoint 34">
       <r>  -19.2513    1.0000 </r>
       <r>  -19.2487    1.0000 </r>
       <r>  -19.2302    1.0000 </r>
       <r>  -19.1961    1.0000 </r>
       <r>  -19.1814    1.0000 </r>
       <r>   -7.4848    1.0000 </r>
       <r>   -7.4692    1.0000 </r>
       <r>   -3.2194    1.0000 </r>
       <r>   -3.1655    1.0000 </r>
       <r>    0.3289    1.0000 </r>
       <r>    0.5223    1.0000 </r>
       <r>    0.5740    1.0000 </r>
       <r>    0.9092    1.0000 </r>
       <r>    4.4352    0.0000 </r>
       <r>    4.5759    0.0000 </r>
       <r>    4.8603    0.0000 </r>
       <r>    5.3174    0.0000 </r>
       <r>    9.2324    0.0000 </r>
       <r>   10.6313    0.0000 </r>
       <r>   10.6428    0.0000 </r>
      </set>
      <set comment="kpoint 35">
       <r>  -19.2512    1.0000 </r>
       <r>  -19.2494    1.0000 </r>
       <r>  -19.2300    1.0000 </r>
       <r>  -19.1950    1.0000 </r>
       <r>  -19.1817    1.0000 </r>
       <r>   -7.4431    1.0000 </r>
       <r>   -7.4219    1.0000 </r>
       <r>   -3.2874    1.0000 </r>
       <r>   -3.2510    1.0000 </r>
       <r>    0.3435    1.0000 </r>
       <r>    0.5663    1.0000 </r>
       <r>    0.5928    1.0000 </r>
       <r>    0.8826    1.0000 </r>
       <r>    4.2842    0.0000 </r>
       <r>    4.4727    0.0000 </r>
       <r>    4.6974    0.0000 </r>
       <r>    5.1480    0.0000 </r>
       <r>    9.6483    0.0000 </r>
       <r>   10.7672    0.0000 </r>
       <r>   10.8822    0.0000 </r>
      </set>
      <set comment="kpoint 36">
       <r>  -19.2511    1.0000 </r>
       <r>  -19.2500    1.0000 </r>
       <r>  -19.2297    1.0000 </r>
       <r>  -19.1940    1.0000 </r>
       <r>  -19.1820    1.0000 </r>
       <r>   -7.4061    1.0000 </r>
       <r>   -7.3799    1.0000 </r>
       <r>   -3.3491    1.0000 </r>
       <r>   -3.3265    1.0000 </r>
       <r>    0.3606    1.0000 </r>
       <r>    0.5988    1.0000 </r>
       <r>    0.6104    1.0000 </r>
       <r>    0.8751    1.0000 </r>
       <r>    4.1586    0.0000 </r>
       <r>    4.3924    0.0000 </r>
       <r>    4.5552    0.0000 </r>
       <r>    4.9961    0.0000 </r>
       <r>   10.0540    0.0000 </r>
       <r>   10.8874    0.0000 </r>
       <r>   11.0103    0.0000 </r>
      </set>
      <set comment="kpoint 37">
       <r>  -19.2511    1.0000 </r>
       <r>  -19.2505    1.0000 </r>
       <r>  -19.2296    1.0000 </r>
       <r>  -19.1933    1.0000 </r>
       <r>  -19.1822    1.0000 </r>
       <r>   -7.3753    1.0000 </r>
       <r>   -7.3449    1.0000 </r>
       <r>   -3.4012    1.0000 </r>
       <r>   -3.3888    1.0000 </r>
       <r>    0.3784    1.0000 </r>
       <r>    0.6201    1.0000 </r>
       <r>    0.6244    1.0000 </r>
       <r>    0.8810    1.0000 </r>
       <r>    4.0601    0.0000 </r>
       <r>    4.3352    0.0000 </r>
       <r>    4.4379    0.0000 </r>
       <r>    4.8669    0.0000 </r>
       <r>   10.4299    0.0000 </r>
       <r>   10.9900    0.0000 </r>
       <r>   11.0910    0.0000 </r>
      </set>
      <set comment="kpoint 38">
       <r>  -19.2511    1.0000 </r>
       <r>  -19.2508    1.0000 </r>
       <r>  -19.2294    1.0000 </r>
       <r>  -19.1927    1.0000 </r>
       <r>  -19.1824    1.0000 </r>
       <r>   -7.3521    1.0000 </r>
       <r>   -7.3185    1.0000 </r>
       <r>   -3.4407    1.0000 </r>
       <r>   -3.4353    1.0000 </r>
       <r>    0.3942    1.0000 </r>
       <r>    0.6326    1.0000 </r>
       <r>    0.6340    1.0000 </r>
       <r>    0.8924    1.0000 </r>
       <r>    3.9896    0.0000 </r>
       <r>    4.2995    0.0000 </r>
       <r>    4.3499    0.0000 </r>
       <r>    4.7664    0.0000 </r>
       <r>   10.7443    0.0000 </r>
       <r>   11.0753    0.0000 </r>
       <r>   11.1448    0.0000 </r>
      </set>
      <set comment="kpoint 39">
       <r>  -19.2511    1.0000 </r>
       <r>  -19.2510    1.0000 </r>
       <r>  -19.2294    1.0000 </r>
       <r>  -19.1923    1.0000 </r>
       <r>  -19.1825    1.0000 </r>
       <r>   -7.3377    1.0000 </r>
       <r>   -7.3020    1.0000 </r>
       <r>   -3.4654    1.0000 </r>
       <r>   -3.4641    1.0000 </r>
       <r>    0.4053    1.0000 </r>
       <r>    0.6391    1.0000 </r>
       <r>    0.6394    1.0000 </r>
       <r>    0.9022    1.0000 </r>
       <r>    3.9474    0.0000 </r>
       <r>    4.2816    0.0000 </r>
       <r>    4.2950    0.0000 </r>
       <r>    4.7015    0.0000 </r>
       <r>   10.9467    0.0000 </r>
       <r>   11.1483    0.0000 </r>
       <r>   11.1764    0.0000 </r>
      </set>
      <set comment="kpoint 40">
       <r>  -19.2511    1.0000 </r>
       <r>  -19.2511    1.0000 </r>
       <r>  -19.2294    1.0000 </r>
       <r>  -19.1922    1.0000 </r>
       <r>  -19.1825    1.0000 </r>
       <r>   -7.3328    1.0000 </r>
       <r>   -7.2964    1.0000 </r>
       <r>   -3.4738    1.0000 </r>
       <r>   -3.4738    1.0000 </r>
       <r>    0.4092    1.0000 </r>
       <r>    0.6411    1.0000 </r>
       <r>    0.6411    1.0000 </r>
       <r>    0.9060    1.0000 </r>
       <r>    3.9334    0.0000 </r>
       <r>    4.2764    0.0000 </r>
       <r>    4.2764    0.0000 </r>
       <r>    4.6788    0.0000 </r>
       <r>   11.0081    0.0000 </r>
       <r>   11.1869    0.0000 </r>
       <r>   11.1869    0.0000 </r>
      </set>
      <set comment="kpoint 41">
       <r>  -19.2511    1.0000 </r>
       <r>  -19.2511    1.0000 </r>
       <r>  -19.2294    1.0000 </r>
       <r>  -19.1922    1.0000 </r>
       <r>  -19.1825    1.0000 </r>
       <r>   -7.3328    1.0000 </r>
       <r>   -7.2964    1.0000 </r>
       <r>   -3.4738    1.0000 </r>
       <r>   -3.4738    1.0000 </r>
       <r>    0.4092    1.0000 </r>
       <r>    0.6411    1.0000 </r>
       <r>    0.6411    1.0000 </r>
       <r>    0.9060    1.0000 </r>
       <r>    3.9334    0.0000 </r>
       <r>    4.2764    0.0000 </r>
       <r>    4.2764    0.0000 </r>
       <r>    4.6788    0.0000 </r>
       <r>   11.0081    0.0000 </r>
       <r>   11.1869    0.0000 </r>
       <r>   11.1869    0.0000 </r>
      </set>
      <set comment="kpoint 42">
       <r>  -19.2510    1.0000 </r>
       <r>  -19.2510    1.0000 </r>
       <r>  -19.2294    1.0000 </r>
       <r>  -19.1924    1.0000 </r>
       <r>  -19.1825    1.0000 </r>
       <r>   -7.3456    1.0000 </r>
       <r>   -7.3045    1.0000 </r>
       <r>   -3.4703    1.0000 </r>
       <r>   -3.4412    1.0000 </r>
       <r>    0.4007    1.0000 </r>
       <r>    0.6242    1.0000 </r>
       <r>    0.6511    1.0000 </r>
       <r>    0.8991    1.0000 </r>
       <r>    3.9602    0.0000 </r>
       <r>    4.2750    0.0000 </r>
       <r>    4.3268    0.0000 </r>
       <r>    4.7234    0.0000 </r>
       <r>   10.9070    0.0000 </r>
       <r>   11.0824    0.0000 </r>
       <r>   11.1712    0.0000 </r>
      </set>
      <set comment="kpoint 43">
       <r>  -19.2508    1.0000 </r>
       <r>  -19.2508    1.0000 </r>
       <r>  -19.2295    1.0000 </r>
       <r>  -19.1932    1.0000 </r>
       <r>  -19.1823    1.0000 </r>
       <r>   -7.3996    1.0000 </r>
       <r>   -7.3106    1.0000 </r>
       <r>   -3.4601    1.0000 </r>
       <r>   -3.3456    1.0000 </r>
       <r>    0.3705    1.0000 </r>
       <r>    0.5769    1.0000 </r>
       <r>    0.6810    1.0000 </r>
       <r>    0.8884    1.0000 </r>
       <r>    4.0263    0.0000 </r>
       <r>    4.2918    0.0000 </r>
       <r>    4.4726    0.0000 </r>
       <r>    4.8465    0.0000 </r>
       <r>   10.6667    0.0000 </r>
       <r>   10.8024    0.0000 </r>
       <r>   11.0757    0.0000 </r>
      </set>
      <set comment="kpoint 44">
       <r>  -19.2505    1.0000 </r>
       <r>  -19.2505    1.0000 </r>
       <r>  -19.2298    1.0000 </r>
       <r>  -19.1943    1.0000 </r>
       <r>  -19.1819    1.0000 </r>
       <r>   -7.4924    1.0000 </r>
       <r>   -7.3112    1.0000 </r>
       <r>   -3.4440    1.0000 </r>
       <r>   -3.1936    1.0000 </r>
       <r>    0.3109    1.0000 </r>
       <r>    0.5084    1.0000 </r>
       <r>    0.7306    1.0000 </r>
       <r>    0.8946    1.0000 </r>
       <r>    4.0910    0.0000 </r>
       <r>    4.3706    0.0000 </r>
       <r>    4.7005    0.0000 </r>
       <r>    5.0341    0.0000 </r>
       <r>   10.3428    0.0000 </r>
       <r>   10.4110    0.0000 </r>
       <r>   10.8843    0.0000 </r>
      </set>
      <set comment="kpoint 45">
       <r>  -19.2502    1.0000 </r>
       <r>  -19.2500    1.0000 </r>
       <r>  -19.2301    1.0000 </r>
       <r>  -19.1959    1.0000 </r>
       <r>  -19.1815    1.0000 </r>
       <r>   -7.6117    1.0000 </r>
       <r>   -7.3102    1.0000 </r>
       <r>   -3.4234    1.0000 </r>
       <r>   -2.9938    1.0000 </r>
       <r>    0.2236    1.0000 </r>
       <r>    0.4298    1.0000 </r>
       <r>    0.7997    1.0000 </r>
       <r>    0.9319    1.0000 </r>
       <r>    4.1357    0.0000 </r>
       <r>    4.5209    0.0000 </r>
       <r>    4.9939    0.0000 </r>
       <r>    5.2805    0.0000 </r>
       <r>    9.9591    0.0000 </r>
       <r>    9.9643    0.0000 </r>
       <r>   10.6184    0.0000 </r>
      </set>
      <set comment="kpoint 46">
       <r>  -19.2497    1.0000 </r>
       <r>  -19.2494    1.0000 </r>
       <r>  -19.2305    1.0000 </r>
       <r>  -19.1979    1.0000 </r>
       <r>  -19.1809    1.0000 </r>
       <r>   -7.7484    1.0000 </r>
       <r>   -7.3089    1.0000 </r>
       <r>   -3.4005    1.0000 </r>
       <r>   -2.7551    1.0000 </r>
       <r>    0.1219    1.0000 </r>
       <r>    0.3519    1.0000 </r>
       <r>    0.8880    1.0000 </r>
       <r>    1.0014    1.0000 </r>
       <r>    4.1804    0.0000 </r>
       <r>    4.7085    0.0000 </r>
       <r>    5.3364    0.0000 </r>
       <r>    5.5832    0.0000 </r>
       <r>    9.4783    0.0000 </r>
       <r>    9.5523    0.0000 </r>
       <r>   10.3047    0.0000 </r>
      </set>
      <set comment="kpoint 47">
       <r>  -19.2491    1.0000 </r>
       <r>  -19.2488    1.0000 </r>
       <r>  -19.2310    1.0000 </r>
       <r>  -19.2002    1.0000 </r>
       <r>  -19.1802    1.0000 </r>
       <r>   -7.8947    1.0000 </r>
       <r>   -7.3079    1.0000 </r>
       <r>   -3.3775    1.0000 </r>
       <r>   -2.4853    1.0000 </r>
       <r>    0.0214    1.0000 </r>
       <r>    0.2837    1.0000 </r>
       <r>    0.9950    1.0000 </r>
       <r>    1.0992    1.0000 </r>
       <r>    4.2386    0.0000 </r>
       <r>    4.9059    0.0000 </r>
       <r>    5.7113    0.0000 </r>
       <r>    5.9377    0.0000 </r>
       <r>    8.9892    0.0000 </r>
       <r>    9.1256    0.0000 </r>
       <r>    9.9635    0.0000 </r>
      </set>
      <set comment="kpoint 48">
       <r>  -19.2485    1.0000 </r>
       <r>  -19.2481    1.0000 </r>
       <r>  -19.2315    1.0000 </r>
       <r>  -19.2028    1.0000 </r>
       <r>  -19.1795    1.0000 </r>
       <r>   -8.0446    1.0000 </r>
       <r>   -7.3075    1.0000 </r>
       <r>   -3.3572    1.0000 </r>
       <r>   -2.1916    1.0000 </r>
       <r>   -0.0649    1.0000 </r>
       <r>    0.2323    1.0000 </r>
       <r>    1.1198    1.0000 </r>
       <r>    1.2212    1.0000 </r>
       <r>    4.3145    0.0000 </r>
       <r>    5.0941    0.0000 </r>
       <r>    6.0968    0.0000 </r>
       <r>    6.3361    0.0000 </r>
       <r>    8.5072    0.0000 </r>
       <r>    8.7066    0.0000 </r>
       <r>    9.6080    0.0000 </r>
      </set>
      <set comment="kpoint 49">
       <r>  -19.2477    1.0000 </r>
       <r>  -19.2473    1.0000 </r>
       <r>  -19.2321    1.0000 </r>
       <r>  -19.2056    1.0000 </r>
       <r>  -19.1787    1.0000 </r>
       <r>   -8.1931    1.0000 </r>
       <r>   -7.3080    1.0000 </r>
       <r>   -3.3421    1.0000 </r>
       <r>   -1.8797    1.0000 </r>
       <r>   -0.1278    1.0000 </r>
       <r>    0.2031    1.0000 </r>
       <r>    1.2617    1.0000 </r>
       <r>    1.3644    1.0000 </r>
       <r>    4.4083    0.0000 </r>
       <r>    5.2535    0.0000 </r>
       <r>    6.4510    0.0000 </r>
       <r>    6.7644    0.0000 </r>
       <r>    8.0498    0.0000 </r>
       <r>    8.3374    0.0000 </r>
       <r>    9.2476    0.0000 </r>
      </set>
      <set comment="kpoint 50">
       <r>  -19.2470    1.0000 </r>
       <r>  -19.2464    1.0000 </r>
       <r>  -19.2327    1.0000 </r>
       <r>  -19.2085    1.0000 </r>
       <r>  -19.1778    1.0000 </r>
       <r>   -8.3367    1.0000 </r>
       <r>   -7.3097    1.0000 </r>
       <r>   -3.3343    1.0000 </r>
       <r>   -1.5552    1.0000 </r>
       <r>   -0.1612    1.0000 </r>
       <r>    0.2002    1.0000 </r>
       <r>    1.4193    1.0000 </r>
       <r>    1.5265    1.0000 </r>
       <r>    4.5175    0.0000 </r>
       <r>    5.3597    0.0000 </r>
       <r>    6.6695    0.0000 </r>
       <r>    7.1641    0.0000 </r>
       <r>    7.6769    0.0000 </r>
       <r>    8.1178    0.0000 </r>
       <r>    8.8920    0.0000 </r>
      </set>
      <set comment="kpoint 51">
       <r>  -19.2462    1.0000 </r>
       <r>  -19.2456    1.0000 </r>
       <r>  -19.2333    1.0000 </r>
       <r>  -19.2114    1.0000 </r>
       <r>  -19.1770    1.0000 </r>
       <r>   -8.4723    1.0000 </r>
       <r>   -7.3124    1.0000 </r>
       <r>   -3.3350    1.0000 </r>
       <r>   -1.2240    1.0000 </r>
       <r>   -0.1618    1.0000 </r>
       <r>    0.2275    1.0000 </r>
       <r>    1.5910    1.0000 </r>
       <r>    1.7052    1.0000 </r>
       <r>    4.6350    0.0000 </r>
       <r>    5.3885    0.0000 </r>
       <r>    6.6069    0.0000 </r>
       <r>    7.0877    0.0000 </r>
       <r>    7.8321    0.0000 </r>
       <r>    8.1538    0.0000 </r>
       <r>    8.5750    0.0000 </r>
      </set>
      <set comment="kpoint 52">
       <r>  -19.2454    1.0000 </r>
       <r>  -19.2448    1.0000 </r>
       <r>  -19.2339    1.0000 </r>
       <r>  -19.2143    1.0000 </r>
       <r>  -19.1762    1.0000 </r>
       <r>   -8.5979    1.0000 </r>
       <r>   -7.3163    1.0000 </r>
       <r>   -3.3442    1.0000 </r>
       <r>   -0.8931    1.0000 </r>
       <r>   -0.1295    1.0000 </r>
       <r>    0.2893    1.0000 </r>
       <r>    1.7747    1.0000 </r>
       <r>    1.8979    1.0000 </r>
       <r>    4.7389    0.0000 </r>
       <r>    5.3399    0.0000 </r>
       <r>    6.3214    0.0000 </r>
       <r>    6.7372    0.0000 </r>
       <r>    8.0710    0.0000 </r>
       <r>    8.2982    0.0000 </r>
       <r>    8.4283    0.0000 </r>
      </set>
      <set comment="kpoint 53">
       <r>  -19.2446    1.0000 </r>
       <r>  -19.2439    1.0000 </r>
       <r>  -19.2345    1.0000 </r>
       <r>  -19.2172    1.0000 </r>
       <r>  -19.1754    1.0000 </r>
       <r>   -8.7118    1.0000 </r>
       <r>   -7.3210    1.0000 </r>
       <r>   -3.3606    1.0000 </r>
       <r>   -0.5731    1.0000 </r>
       <r>   -0.0663    1.0000 </r>
       <r>    0.3920    1.0000 </r>
       <r>    1.9674    1.0000 </r>
       <r>    2.1017    1.0000 </r>
       <r>    4.7580    0.0000 </r>
       <r>    5.2897    0.0000 </r>
       <r>    5.9568    0.0000 </r>
       <r>    6.3783    0.0000 </r>
       <r>    7.7593    0.0000 </r>
       <r>    8.0906    0.0000 </r>
       <r>    8.7806    0.0000 </r>
      </set>
      <set comment="kpoint 54">
       <r>  -19.2437    1.0000 </r>
       <r>  -19.2432    1.0000 </r>
       <r>  -19.2350    1.0000 </r>
       <r>  -19.2199    1.0000 </r>
       <r>  -19.1747    1.0000 </r>
       <r>   -8.8126    1.0000 </r>
       <r>   -7.3263    1.0000 </r>
       <r>   -3.3821    1.0000 </r>
       <r>   -0.2792    1.0000 </r>
       <r>    0.0229    1.0000 </r>
       <r>    0.5451    1.0000 </r>
       <r>    2.1654    1.0000 </r>
       <r>    2.3124    1.0000 </r>
       <r>    4.6070    0.0000 </r>
       <r>    5.3460    0.0000 </r>
       <r>    5.5797    0.0000 </r>
       <r>    6.0251    0.0000 </r>
       <r>    7.4336    0.0000 </r>
       <r>    7.7248    0.0000 </r>
       <r>    9.2406    0.0000 </r>
      </set>
      <set comment="kpoint 55">
       <r>  -19.2430    1.0000 </r>
       <r>  -19.2425    1.0000 </r>
       <r>  -19.2356    1.0000 </r>
       <r>  -19.2223    1.0000 </r>
       <r>  -19.1741    1.0000 </r>
       <r>   -8.8993    1.0000 </r>
       <r>   -7.3318    1.0000 </r>
       <r>   -3.4062    1.0000 </r>
       <r>   -0.0279    1.0000 </r>
       <r>    0.1310    1.0000 </r>
       <r>    0.7568    1.0000 </r>
       <r>    2.3631    1.0000 </r>
       <r>    2.5248    1.0000 </r>
       <r>    4.3483    0.0000 </r>
       <r>    5.2185    0.0000 </r>
       <r>    5.4248    0.0000 </r>
       <r>    5.7328    0.0000 </r>
       <r>    7.1223    0.0000 </r>
       <r>    7.3770    0.0000 </r>
       <r>    9.6617    0.0000 </r>
      </set>
      <set comment="kpoint 56">
       <r>  -19.2422    1.0000 </r>
       <r>  -19.2418    1.0000 </r>
       <r>  -19.2361    1.0000 </r>
       <r>  -19.2245    1.0000 </r>
       <r>  -19.1736    1.0000 </r>
       <r>   -8.9712    1.0000 </r>
       <r>   -7.3370    1.0000 </r>
       <r>   -3.4301    1.0000 </r>
       <r>    0.1743    1.0000 </r>
       <r>    0.2486    1.0000 </r>
       <r>    1.0211    1.0000 </r>
       <r>    2.5531    1.0000 </r>
       <r>    2.7308    1.0000 </r>
       <r>    4.0578    0.0000 </r>
       <r>    4.8902    0.0000 </r>
       <r>    5.2246    0.0000 </r>
       <r>    5.7589    0.0000 </r>
       <r>    6.8372    0.0000 </r>
       <r>    7.0590    0.0000 </r>
       <r>    9.7622    0.0000 </r>
      </set>
      <set comment="kpoint 57">
       <r>  -19.2416    1.0000 </r>
       <r>  -19.2413    1.0000 </r>
       <r>  -19.2365    1.0000 </r>
       <r>  -19.2263    1.0000 </r>
       <r>  -19.1731    1.0000 </r>
       <r>   -9.0277    1.0000 </r>
       <r>   -7.3416    1.0000 </r>
       <r>   -3.4514    1.0000 </r>
       <r>    0.3328    1.0000 </r>
       <r>    0.3638    1.0000 </r>
       <r>    1.3137    1.0000 </r>
       <r>    2.7250    1.0000 </r>
       <r>    2.9197    1.0000 </r>
       <r>    3.7704    0.0000 </r>
       <r>    4.6097    0.0000 </r>
       <r>    4.9216    0.0000 </r>
       <r>    5.9195    0.0000 </r>
       <r>    6.5902    0.0000 </r>
       <r>    6.7831    0.0000 </r>
       <r>    9.4589    0.0000 </r>
      </set>
      <set comment="kpoint 58">
       <r>  -19.2410    1.0000 </r>
       <r>  -19.2409    1.0000 </r>
       <r>  -19.2368    1.0000 </r>
       <r>  -19.2277    1.0000 </r>
       <r>  -19.1728    1.0000 </r>
       <r>   -9.0683    1.0000 </r>
       <r>   -7.3452    1.0000 </r>
       <r>   -3.4681    1.0000 </r>
       <r>    0.4517    1.0000 </r>
       <r>    0.4625    1.0000 </r>
       <r>    1.6001    1.0000 </r>
       <r>    2.8653    1.0000 </r>
       <r>    3.0762    0.9995 </r>
       <r>    3.5085    0.0000 </r>
       <r>    4.3920    0.0000 </r>
       <r>    4.6605    0.0000 </r>
       <r>    6.0737    0.0000 </r>
       <r>    6.3957    0.0000 </r>
       <r>    6.5648    0.0000 </r>
       <r>    9.1924    0.0000 </r>
      </set>
      <set comment="kpoint 59">
       <r>  -19.2407    1.0000 </r>
       <r>  -19.2406    1.0000 </r>
       <r>  -19.2370    1.0000 </r>
       <r>  -19.2285    1.0000 </r>
       <r>  -19.1726    1.0000 </r>
[...]
        <r>  0.0000  0.0013  0.0054  0.0013  0.0000  0.0013  0.0000  0.0013  0.0005 </r>
       </set>
       <set comment="band 14">
        <r>  0.0981  0.0027  0.0169  0.0001  0.0000  0.0006  0.0088  0.0004  0.0096 </r>
        <r>  0.0981  0.0001  0.0169  0.0027  0.0000  0.0004  0.0088  0.0006  0.0096 </r>
        <r>  0.0002  0.0017  0.0000  0.0017  0.0000  0.0000  0.0012  0.0000  0.0000 </r>
        <r>  0.0000  0.0102  0.1795  0.0102  0.0000  0.0000  0.0000  0.0000  0.0206 </r>
       </set>
       <set comment="band 15">
        <r>  0.0016  0.0002  0.1555  0.0082  0.0000  0.0004  0.0000  0.0003  0.0103 </r>
        <r>  0.0016  0.0082  0.1555  0.0002  0.0000  0.0003  0.0000  0.0004  0.0103 </r>
        <r>  0.0000  0.0031  0.0002  0.0031  0.0000  0.0002  0.0000  0.0002  0.0235 </r>
        <r>  0.0536  0.0028  0.0000  0.0028  0.0000  0.0000  0.0139  0.0000  0.0000 </r>
       </set>
       <set comment="band 16">
        <r>  0.1082  0.0031  0.0085  0.0001  0.0000  0.0005  0.0104  0.0003  0.0024 </r>
        <r>  0.1082  0.0001  0.0085  0.0031  0.0000  0.0003  0.0104  0.0005  0.0024 </r>
        <r>  0.0000  0.0116  0.2521  0.0116  0.0000  0.0002  0.0000  0.0002  0.0200 </r>
        <r>  0.0328  0.0001  0.0000  0.0001  0.0000  0.0000  0.0028  0.0000  0.0000 </r>
       </set>
       <set comment="band 17">
        <r>  0.0152  0.0110  0.1423  0.0042  0.0000  0.0000  0.0038  0.0000  0.0009 </r>
        <r>  0.0152  0.0042  0.1423  0.0110  0.0000  0.0000  0.0038  0.0000  0.0009 </r>
        <r>  0.1130  0.0007  0.0000  0.0007  0.0000  0.0000  0.0197  0.0000  0.0000 </r>
        <r>  0.0000  0.0005  0.0734  0.0005  0.0000  0.0009  0.0000  0.0009  0.0041 </r>
       </set>
       <set comment="band 18">
        <r>  0.0008  0.0015  0.0001  0.1418  0.0016  0.0173  0.0032  0.0010  0.0029 </r>
        <r>  0.0008  0.1418  0.0001  0.0015  0.0016  0.0010  0.0032  0.0173  0.0029 </r>
        <r>  0.0000  0.0200  0.0009  0.0200  0.0000  0.0218  0.0000  0.0218  0.0084 </r>
        <r>  0.0048  0.0436  0.0000  0.0436  0.0022  0.0005  0.0042  0.0005  0.0000 </r>
       </set>
       <set comment="band 19">
        <r>  0.0002  0.0236  0.0005  0.1112  0.0004  0.0086  0.0043  0.0095  0.0042 </r>
        <r>  0.0002  0.1112  0.0005  0.0236  0.0004  0.0095  0.0043  0.0086  0.0042 </r>
        <r>  0.0046  0.0696  0.0000  0.0696  0.0001  0.0109  0.0132  0.0109  0.0000 </r>
        <r>  0.0000  0.0113  0.0067  0.0113  0.0000  0.0089  0.0000  0.0089  0.0029 </r>
       </set>
       <set comment="band 20">
        <r>  0.0028  0.0744  0.0038  0.0577  0.0003  0.0156  0.0081  0.0043  0.0055 </r>
        <r>  0.0028  0.0577  0.0038  0.0744  0.0003  0.0043  0.0081  0.0156  0.0055 </r>
        <r>  0.0005  0.0038  0.0000  0.0038  0.0015  0.0176  0.0100  0.0176  0.0000 </r>
        <r>  0.0000  0.0559  0.0001  0.0559  0.0000  0.0058  0.0000  0.0058  0.0053 </r>
       </set>
      </set>
      <set comment="kpoint 139">
       <set comment="band 1">
        <r>  0.0000  0.0000  0.0000  0.0009  0.0000  0.0000  0.0000  0.0003  0.0000 </r>
        <r>  0.0000  0.0009  0.0000  0.0000  0.0000  0.0003  0.0000  0.0000  0.0000 </r>
        <r>  0.0000  0.0000  0.0000  0.0000  0.0000  0.4896  0.0000  0.4916  0.0045 </r>
        <r>  0.0000  0.0000  0.0000  0.0000  0.0000  0.0000  0.0000  0.0000  0.0000 </r>
       </set>
       <set comment="band 2">
        <r>  0.0000  0.0000  0.0000  0.0009  0.0000  0.0000  0.0000  0.0003  0.0000 </r>
        <r>  0.0000  0.0009  0.0000  0.0000  0.0000  0.0003  0.0000  0.0000  0.0000 </r>
        <r>  0.0000  0.0000  0.0000  0.0000  0.0000  0.4913  0.0052  0.4893  0.0000 </r>
        <r>  0.0000  0.0000  0.0000  0.0000  0.0000  0.0000  0.0000  0.0000  0.0000 </r>
       </set>
       <set comment="band 3">
        <r>  0.0000  0.0000  0.0000  0.0000  0.0000  0.0000  0.0001  0.0000  0.0001 </r>
        <r>  0.0000  0.0000  0.0000  0.0000  0.0000  0.0000  0.0001  0.0000  0.0001 </r>
        <r>  0.0000  0.0000  0.0000  0.0000  0.0000  0.0026  0.9810  0.0026  0.0000 </r>
        <r>  0.0000  0.0000  0.0000  0.0000  0.0000  0.0000  0.0000  0.0000  0.0000 </r>
       </set>
       <set comment="band 4">
        <r>  0.0008  0.0000  0.0006  0.0000  0.0000  0.0000  0.0001  0.0000  0.0001 </r>
        <r>  0.0008  0.0000  0.0006  0.0000  0.0000  0.0000  0.0001  0.0000  0.0001 </r>
        <r>  0.0000  0.0000  0.0000  0.0000  0.0000  0.0023  0.0000  0.0023  0.9792 </r>
        <r>  0.0000  0.0000  0.0000  0.0000  0.0000  0.0000  0.0000  0.0000  0.0000 </r>
       </set>
       <set comment="band 5">
        <r>  0.0000  0.0000  0.0000  0.0000  0.0001  0.0000  0.0000  0.0000  0.0000 </r>
        <r>  0.0000  0.0000  0.0000  0.0000  0.0001  0.0000  0.0000  0.0000  0.0000 </r>
        <r>  0.0000  0.0000  0.0000  0.0000  0.9872  0.0000  0.0000  0.0000  0.0000 </r>
        <r>  0.0000  0.0000  0.0000  0.0000  0.0000  0.0000  0.0000  0.0000  0.0000 </r>
       </set>
       <set comment="band 6">
        <r>  0.0638  0.0000  0.0110  0.0001  0.0000  0.0000  0.0000  0.0000  0.0011 </r>
        <r>  0.0638  0.0001  0.0110  0.0000  0.0000  0.0000  0.0000  0.0000  0.0011 </r>
        <r>  0.5833  0.0000  0.0000  0.0000  0.0000  0.0000  0.0000  0.0000  0.0000 </r>
        <r>  0.0000  0.0000  0.0029  0.0000  0.0000  0.0000  0.0000  0.0000  0.0001 </r>
       </set>
       <set comment="band 7">
        <r>  0.0806  0.0001  0.0098  0.0000  0.0000  0.0000  0.0000  0.0000  0.0018 </r>
        <r>  0.0806  0.0000  0.0098  0.0001  0.0000  0.0000  0.0000  0.0000  0.0018 </r>
        <r>  0.0000  0.0000  0.0047  0.0000  0.0000  0.0000  0.0000  0.0000  0.0003 </r>
        <r>  0.4744  0.0000  0.0000  0.0000  0.0000  0.0000  0.0000  0.0000  0.0000 </r>
       </set>
       <set comment="band 8">
        <r>  0.1836  0.0012  0.0221  0.0003  0.0000  0.0001  0.0002  0.0000  0.0070 </r>
        <r>  0.1836  0.0003  0.0221  0.0012  0.0000  0.0000  0.0002  0.0001  0.0070 </r>
        <r>  0.0000  0.0004  0.1469  0.0004  0.0000  0.0000  0.0000  0.0000  0.0070 </r>
        <r>  0.1506  0.0013  0.0000  0.0013  0.0000  0.0000  0.0000  0.0000  0.0000 </r>
       </set>
       <set comment="band 9">
        <r>  0.2115  0.0000  0.0134  0.0006  0.0000  0.0000  0.0012  0.0000  0.0059 </r>
        <r>  0.2115  0.0006  0.0134  0.0000  0.0000  0.0000  0.0012  0.0000  0.0059 </r>
        <r>  0.1414  0.0006  0.0000  0.0006  0.0000  0.0000  0.0002  0.0000  0.0000 </r>
        <r>  0.0000  0.0007  0.1276  0.0007  0.0000  0.0000  0.0000  0.0000  0.0045 </r>
       </set>
       <set comment="band 10">
        <r>  0.0001  0.0968  0.0003  0.0169  0.0000  0.0085  0.0001  0.0013  0.0001 </r>
        <r>  0.0001  0.0169  0.0003  0.0968  0.0000  0.0013  0.0001  0.0085  0.0001 </r>
        <r>  0.0006  0.0003  0.0000  0.0003  0.0000  0.0016  0.0000  0.0016  0.0000 </r>
        <r>  0.0000  0.1568  0.0041  0.1568  0.0000  0.0008  0.0000  0.0008  0.0000 </r>
       </set>
       <set comment="band 11">
        <r>  0.0013  0.0926  0.0025  0.0195  0.0000  0.0087  0.0000  0.0011  0.0001 </r>
        <r>  0.0013  0.0195  0.0025  0.0926  0.0000  0.0011  0.0000  0.0087  0.0001 </r>
        <r>  0.0000  0.0000  0.0026  0.0000  0.0000  0.0018  0.0000  0.0018  0.0002 </r>
        <r>  0.0006  0.1582  0.0000  0.1582  0.0000  0.0007  0.0001  0.0007  0.0000 </r>
       </set>
       <set comment="band 12">
        <r>  0.0006  0.0242  0.0006  0.0910  0.0000  0.0014  0.0001  0.0074  0.0001 </r>
        <r>  0.0006  0.0910  0.0006  0.0242  0.0000  0.0074  0.0001  0.0014  0.0001 </r>
        <r>  0.0000  0.1763  0.0038  0.1763  0.0000  0.0014  0.0000  0.0014  0.0003 </r>
        <r>  0.0004  0.0000  0.0000  0.0000  0.0000  0.0016  0.0000  0.0016  0.0000 </r>
       </set>
       <set comment="band 13">
        <r>  0.0010  0.0201  0.0021  0.0943  0.0000  0.0018  0.0001  0.0072  0.0000 </r>
        <r>  0.0010  0.0943  0.0021  0.0201  0.0000  0.0072  0.0001  0.0018  0.0000 </r>
        <r>  0.0000  0.1781  0.0000  0.1781  0.0000  0.0015  0.0002  0.0015  0.0000 </r>
        <r>  0.0000  0.0003  0.0011  0.0003  0.0000  0.0015  0.0000  0.0015  0.0001 </r>
       </set>
       <set comment="band 14">
        <r>  0.0968  0.0010  0.0232  0.0000  0.0000  0.0002  0.0088  0.0001  0.0096 </r>
        <r>  0.0968  0.0000  0.0232  0.0010  0.0000  0.0001  0.0088  0.0002  0.0096 </r>
        <r>  0.0000  0.0006  0.0000  0.0006  0.0000  0.0000  0.0016  0.0000  0.0000 </r>
        <r>  0.0000  0.0027  0.1747  0.0027  0.0000  0.0000  0.0000  0.0000  0.0216 </r>
       </set>
       <set comment="band 15">
        <r>  0.0060  0.0000  0.1526  0.0023  0.0000  0.0001  0.0001  0.0001  0.0110 </r>
        <r>  0.0060  0.0023  0.1526  0.0000  0.0000  0.0001  0.0001  0.0001  0.0110 </r>
        <r>  0.0000  0.0013  0.0015  0.0013  0.0000  0.0001  0.0000  0.0001  0.0282 </r>
        <r>  0.0462  0.0008  0.0000  0.0008  0.0000  0.0000  0.0127  0.0000  0.0000 </r>
       </set>
       <set comment="band 16">
        <r>  0.1043  0.0008  0.0167  0.0000  0.0000  0.0001  0.0114  0.0001  0.0014 </r>
        <r>  0.1043  0.0000  0.0167  0.0008  0.0000  0.0001  0.0114  0.0001  0.0014 </r>
        <r>  0.0000  0.0027  0.2576  0.0027  0.0000  0.0001  0.0000  0.0001  0.0175 </r>
        <r>  0.0380  0.0000  0.0000  0.0000  0.0000  0.0000  0.0047  0.0000  0.0000 </r>
       </set>
       <set comment="band 17">
        <r>  0.0172  0.0027  0.1412  0.0011  0.0000  0.0000  0.0054  0.0000  0.0007 </r>
        <r>  0.0172  0.0011  0.1412  0.0027  0.0000  0.0000  0.0054  0.0000  0.0007 </r>
        <r>  0.1118  0.0002  0.0000  0.0002  0.0000  0.0000  0.0222  0.0000  0.0000 </r>
        <r>  0.0000  0.0002  0.0868  0.0002  0.0000  0.0002  0.0000  0.0002  0.0029 </r>
       </set>
       <set comment="band 18">
        <r>  0.0006  0.0023  0.0001  0.1606  0.0005  0.0209  0.0012  0.0011  0.0014 </r>
        <r>  0.0006  0.1606  0.0001  0.0023  0.0005  0.0011  0.0012  0.0209  0.0014 </r>
        <r>  0.0000  0.0252  0.0014  0.0252  0.0000  0.0253  0.0000  0.0253  0.0032 </r>
        <r>  0.0026  0.0512  0.0000  0.0512  0.0007  0.0006  0.0017  0.0006  0.0000 </r>
       </set>
       <set comment="band 19">
        <r>  0.0001  0.0017  0.0007  0.1732  0.0000  0.0225  0.0000  0.0015  0.0000 </r>
        <r>  0.0001  0.1732  0.0007  0.0017  0.0000  0.0015  0.0000  0.0225  0.0000 </r>
        <r>  0.0006  0.0307  0.0000  0.0307  0.0000  0.0270  0.0003  0.0270  0.0000 </r>
        <r>  0.0000  0.0533  0.0012  0.0533  0.0000  0.0009  0.0000  0.0009  0.0000 </r>
       </set>
       <set comment="band 20">
        <r>  0.0030  0.1153  0.0028  0.0006  0.0002  0.0023  0.0084  0.0148  0.0079 </r>
        <r>  0.0030  0.0006  0.0028  0.1153  0.0002  0.0148  0.0084  0.0023  0.0079 </r>
        <r>  0.0050  0.0497  0.0000  0.0497  0.0005  0.0019  0.0152  0.0019  0.0000 </r>
        <r>  0.0000  0.0196  0.0067  0.0196  0.0000  0.0172  0.0000  0.0172  0.0065 </r>
       </set>
      </set>
      <set comment="kpoint 140">
       <set comment="band 1">
        <r>  0.0000  0.0000  0.0000  0.0018  0.0000  0.0000  0.0000  0.0006  0.0000 </r>
        <r>  0.0000  0.0000  0.0000  0.0001  0.0000  0.0000  0.0000  0.0000  0.0000 </r>
        <r>  0.0000  0.0000  0.0000  0.0000  0.0000  0.0000  0.0000  0.9858  0.0000 </r>
        <r>  0.0000  0.0000  0.0000  0.0000  0.0000  0.0000  0.0000  0.0000  0.0000 </r>
       </set>
       <set comment="band 2">
        <r>  0.0000  0.0001  0.0000  0.0000  0.0000  0.0000  0.0000  0.0000  0.0000 </r>
        <r>  0.0000  0.0018  0.0000  0.0000  0.0000  0.0006  0.0000  0.0000  0.0000 </r>
        <r>  0.0000  0.0000  0.0000  0.0000  0.0000  0.9858  0.0000  0.0000  0.0000 </r>
        <r>  0.0000  0.0000  0.0000  0.0000  0.0000  0.0000  0.0000  0.0000  0.0000 </r>
       </set>
       <set comment="band 3">
        <r>  0.0000  0.0000  0.0000  0.0000  0.0000  0.0000  0.0001  0.0000  0.0001 </r>
        <r>  0.0000  0.0000  0.0000  0.0000  0.0000  0.0000  0.0001  0.0000  0.0001 </r>
        <r>  0.0000  0.0000  0.0000  0.0000  0.0000  0.0000  0.9862  0.0000  0.0000 </r>
        <r>  0.0000  0.0000  0.0000  0.0000  0.0000  0.0000  0.0000  0.0000  0.0000 </r>
       </set>
       <set comment="band 4">
        <r>  0.0008  0.0000  0.0006  0.0000  0.0000  0.0000  0.0001  0.0000  0.0001 </r>
        <r>  0.0008  0.0000  0.0006  0.0000  0.0000  0.0000  0.0001  0.0000  0.0001 </r>
        <r>  0.0000  0.0000  0.0000  0.0000  0.0000  0.0000  0.0000  0.0000  0.9837 </r>
        <r>  0.0000  0.0000  0.0000  0.0000  0.0000  0.0000  0.0000  0.0000  0.0000 </r>
       </set>
       <set comment="band 5">
        <r>  0.0000  0.0000  0.0000  0.0000  0.0001  0.0000  0.0000  0.0000  0.0000 </r>
        <r>  0.0000  0.0000  0.0000  0.0000  0.0001  0.0000  0.0000  0.0000  0.0000 </r>
        <r>  0.0000  0.0000  0.0000  0.0000  0.9872  0.0000  0.0000  0.0000  0.0000 </r>
        <r>  0.0000  0.0000  0.0000  0.0000  0.0000  0.0000  0.0000  0.0000  0.0000 </r>
       </set>
       <set comment="band 6">
        <r>  0.0640  0.0000  0.0111  0.0000  0.0000  0.0000  0.0000  0.0000  0.0011 </r>
        <r>  0.0640  0.0000  0.0111  0.0000  0.0000  0.0000  0.0000  0.0000  0.0011 </r>
        <r>  0.5827  0.0000  0.0000  0.0000  0.0000  0.0000  0.0000  0.0000  0.0000 </r>
        <r>  0.0000  0.0000  0.0029  0.0000  0.0000  0.0000  0.0000  0.0000  0.0001 </r>
       </set>
       <set comment="band 7">
        <r>  0.0809  0.0000  0.0098  0.0000  0.0000  0.0000  0.0000  0.0000  0.0018 </r>
        <r>  0.0809  0.0000  0.0098  0.0000  0.0000  0.0000  0.0000  0.0000  0.0018 </r>
        <r>  0.0000  0.0000  0.0047  0.0000  0.0000  0.0000  0.0000  0.0000  0.0003 </r>
        <r>  0.4739  0.0000  0.0000  0.0000  0.0000  0.0000  0.0000  0.0000  0.0000 </r>
       </set>
       <set comment="band 8">
        <r>  0.1843  0.0000  0.0230  0.0000  0.0000  0.0000  0.0002  0.0000  0.0072 </r>
        <r>  0.1843  0.0000  0.0230  0.0000  0.0000  0.0000  0.0002  0.0000  0.0072 </r>
        <r>  0.0000  0.0000  0.1500  0.0000  0.0000  0.0000  0.0000  0.0000  0.0071 </r>
        <r>  0.1523  0.0000  0.0000  0.0000  0.0000  0.0000  0.0000  0.0000  0.0000 </r>
       </set>
       <set comment="band 9">
        <r>  0.2117  0.0000  0.0137  0.0000  0.0000  0.0000  0.0012  0.0000  0.0060 </r>
        <r>  0.2117  0.0000  0.0137  0.0000  0.0000  0.0000  0.0012  0.0000  0.0060 </r>
        <r>  0.1426  0.0000  0.0000  0.0000  0.0000  0.0000  0.0003  0.0000  0.0000 </r>
        <r>  0.0000  0.0000  0.1300  0.0000  0.0000  0.0000  0.0000  0.0000  0.0046 </r>
       </set>
       <set comment="band 10">
        <r>  0.0000  0.0000  0.0000  0.0377  0.0000  0.0000  0.0000  0.0024  0.0000 </r>
        <r>  0.0000  0.0000  0.0000  0.1918  0.0000  0.0000  0.0000  0.0176  0.0000 </r>
        <r>  0.0000  0.0000  0.0000  0.0002  0.0000  0.0000  0.0000  0.0034  0.0000 </r>
        <r>  0.0000  0.0000  0.0000  0.3198  0.0000  0.0000  0.0000  0.0015  0.0000 </r>
       </set>
       <set comment="band 11">
        <r>  0.0000  0.1918  0.0000  0.0000  0.0000  0.0176  0.0000  0.0000  0.0000 </r>
        <r>  0.0000  0.0377  0.0000  0.0000  0.0000  0.0024  0.0000  0.0000  0.0000 </r>
        <r>  0.0000  0.0002  0.0000  0.0000  0.0000  0.0034  0.0000  0.0000  0.0000 </r>
        <r>  0.0000  0.3198  0.0000  0.0000  0.0000  0.0015  0.0000  0.0000  0.0000 </r>
       </set>
       <set comment="band 12">
        <r>  0.0000  0.0000  0.0000  0.1877  0.0000  0.0000  0.0000  0.0150  0.0000 </r>
        <r>  0.0000  0.0000  0.0000  0.0461  0.0000  0.0000  0.0000  0.0032  0.0000 </r>
        <r>  0.0000  0.0000  0.0000  0.3598  0.0000  0.0000  0.0000  0.0030  0.0000 </r>
        <r>  0.0000  0.0000  0.0000  0.0002  0.0000  0.0000  0.0000  0.0032  0.0000 </r>
       </set>
       <set comment="band 13">
        <r>  0.0000  0.0461  0.0000  0.0000  0.0000  0.0032  0.0000  0.0000  0.0000 </r>
        <r>  0.0000  0.1877  0.0000  0.0000  0.0000  0.0150  0.0000  0.0000  0.0000 </r>
        <r>  0.0000  0.3598  0.0000  0.0000  0.0000  0.0030  0.0000  0.0000  0.0000 </r>
        <r>  0.0000  0.0002  0.0000  0.0000  0.0000  0.0032  0.0000  0.0000  0.0000 </r>
       </set>
       <set comment="band 14">
        <r>  0.0966  0.0000  0.0255  0.0000  0.0000  0.0000  0.0088  0.0000  0.0096 </r>
        <r>  0.0966  0.0000  0.0255  0.0000  0.0000  0.0000  0.0088  0.0000  0.0096 </r>
        <r>  0.0001  0.0000  0.0000  0.0000  0.0000  0.0000  0.0017  0.0000  0.0000 </r>
        <r>  0.0000  0.0000  0.1732  0.0000  0.0000  0.0000  0.0000  0.0000  0.0220 </r>
       </set>
       <set comment="band 15">
        <r>  0.0080  0.0000  0.1516  0.0000  0.0000  0.0000  0.0002  0.0000  0.0111 </r>
        <r>  0.0080  0.0000  0.1516  0.0000  0.0000  0.0000  0.0002  0.0000  0.0111 </r>
        <r>  0.0000  0.0000  0.0031  0.0000  0.0000  0.0000  0.0000  0.0000  0.0298 </r>
        <r>  0.0441  0.0000  0.0000  0.0000  0.0000  0.0000  0.0123  0.0000  0.0000 </r>
       </set>
       <set comment="band 16">
        <r>  0.1026  0.0000  0.0196  0.0000  0.0000  0.0000  0.0117  0.0000  0.0011 </r>
        <r>  0.1026  0.0000  0.0196  0.0000  0.0000  0.0000  0.0117  0.0000  0.0011 </r>
        <r>  0.0000  0.0000  0.2583  0.0000  0.0000  0.0000  0.0000  0.0000  0.0167 </r>
        <r>  0.0393  0.0000  0.0000  0.0000  0.0000  0.0000  0.0053  0.0000  0.0000 </r>
       </set>
       <set comment="band 17">
        <r>  0.0177  0.0000  0.1407  0.0000  0.0000  0.0000  0.0060  0.0000  0.0007 </r>
        <r>  0.0177  0.0000  0.1407  0.0000  0.0000  0.0000  0.0060  0.0000  0.0007 </r>
        <r>  0.1112  0.0000  0.0000  0.0000  0.0000  0.0000  0.0230  0.0000  0.0000 </r>
        <r>  0.0000  0.0000  0.0911  0.0000  0.0000  0.0000  0.0000  0.0000  0.0026 </r>
       </set>
       <set comment="band 18">
        <r>  0.0000  0.0026  0.0000  0.1738  0.0000  0.0231  0.0000  0.0012  0.0000 </r>
        <r>  0.0000  0.1740  0.0000  0.0026  0.0000  0.0012  0.0000  0.0230  0.0000 </r>
        <r>  0.0000  0.0286  0.0000  0.0286  0.0000  0.0276  0.0000  0.0276  0.0000 </r>
        <r>  0.0000  0.0560  0.0000  0.0560  0.0000  0.0006  0.0000  0.0006  0.0000 </r>
       </set>
       <set comment="band 19">
        <r>  0.0000  0.0027  0.0000  0.1737  0.0000  0.0230  0.0000  0.0012  0.0000 </r>
        <r>  0.0000  0.1736  0.0000  0.0027  0.0000  0.0012  0.0000  0.0230  0.0000 </r>
        <r>  0.0000  0.0285  0.0000  0.0285  0.0000  0.0276  0.0000  0.0276  0.0000 </r>
        <r>  0.0000  0.0562  0.0000  0.0562  0.0000  0.0006  0.0000  0.0006  0.0000 </r>
       </set>
       <set comment="band 20">
        <r>  0.0000  0.1617  0.0000  0.0031  0.0000  0.0027  0.0000  0.0214  0.0000 </r>
        <r>  0.0000  0.0031  0.0000  0.1617  0.0000  0.0214  0.0000  0.0027  0.0000 </r>
        <r>  0.0000  0.0737  0.0000  0.0738  0.0000  0.0018  0.0000  0.0018  0.0000 </r>
        <r>  0.0000  0.0252  0.0000  0.0252  0.0000  0.0254  0.0000  0.0254  0.0000 </r>
       </set>
      </set>
     </set>
    </set>
   </array>
  </projected>
 </calculation>
 <structure name="finalpos" >
  <crystal>
   <varray name="basis" >
    <v>       4.30014086       0.00000000       0.00000000 </v>
    <v>       0.00000000       4.30014086       0.00000000 </v>
    <v>       0.00000000       0.00000000       6.14586115 </v>
   </varray>
   <i name="volume">    113.64441771 </i>
   <varray name="rec_basis" >
    <v>       0.23255052       0.00000000       0.00000000 </v>
    <v>       0.00000000       0.23255052       0.00000000 </v>
    <v>       0.00000000       0.00000000       0.16271113 </v>
   </varray>
  </crystal>
  <varray name="positions" >
   <v>       0.50000000       0.00000000       0.72573602 </v>
   <v>       0.00000000       0.50000000       0.27426400 </v>
   <v>       0.00000000       0.00000000       0.00000000 </v>
   <v>       0.50000000       0.50000000       0.50000000 </v>
  </varray>
 </structure>
</modeling>
