   4   4   0   0
  0.2841110E+02  0.4300141E-09  0.4300141E-09  0.6145861E-09  0.5000000E-15
  1.000000000000000E-004
  CAR 
 Ga2BiAs                                 
     12.78559096    -22.31458493  301      3.48327923      1.00000000
    -22.315  0.0000E+00  0.0000E+00
    -22.198  0.0000E+00  0.0000E+00
    -22.081  0.0000E+00  0.0000E+00
    -21.964  0.0000E+00  0.0000E+00
    -21.847  0.0000E+00  0.0000E+00
    -21.730  0.0000E+00  0.0000E+00
    -21.613  0.0000E+00  0.0000E+00
    -21.496  0.0000E+00  0.0000E+00
    -21.379  0.0000E+00  0.0000E+00
    -21.262  0.0000E+00  0.0000E+00
    -21.145  0.0000E+00  0.0000E+00
    -21.028  0.0000E+00  0.0000E+00
    -20.911  0.3767E-06  0.4407E-07
    -20.794  0.2595E+00  0.3036E-01
    -20.677  0.1729E+02  0.2053E+01
    -20.560  0.1644E+02  0.3977E+01
    -20.443  0.1933E+00  0.4000E+01
    -20.326  0.2037E-06  0.4000E+01
    -20.209  0.0000E+00  0.4000E+01
    -20.092  0.0000E+00  0.4000E+01
    -19.975  0.0000E+00  0.4000E+01
    -19.858  0.0000E+00  0.4000E+01
    -19.741  0.0000E+00  0.4000E+01
    -19.624  0.0000E+00  0.4000E+01
    -19.507  0.0000E+00  0.4000E+01
    -19.390  0.0000E+00  0.4000E+01
    -19.273  0.0000E+00  0.4000E+01
    -19.156  0.0000E+00  0.4000E+01
    -19.039  0.0000E+00  0.4000E+01
    -18.922  0.0000E+00  0.4000E+01
    -18.805  0.0000E+00  0.4000E+01
    -18.688  0.0000E+00  0.4000E+01
    -18.571  0.0000E+00  0.4000E+01
    -18.454  0.0000E+00  0.4000E+01
    -18.337  0.0000E+00  0.4000E+01
    -18.220  0.0000E+00  0.4000E+01
    -18.103  0.0000E+00  0.4000E+01
    -17.986  0.5198E-08  0.4000E+01
    -17.869  0.3800E-01  0.4004E+01
    -17.752  0.1884E+02  0.6208E+01
    -17.635  0.2922E+02  0.9627E+01
    -17.518  0.3184E+01  0.1000E+02
    -17.401  0.2455E-03  0.1000E+02
    -17.284  0.6967E-12  0.1000E+02
    -17.167  0.0000E+00  0.1000E+02
    -17.050  0.0000E+00  0.1000E+02
    -16.933  0.0000E+00  0.1000E+02
    -16.816  0.0000E+00  0.1000E+02
    -16.699  0.0000E+00  0.1000E+02
    -16.582  0.0000E+00  0.1000E+02
    -16.465  0.0000E+00  0.1000E+02
    -16.348  0.0000E+00  0.1000E+02
    -16.231  0.0000E+00  0.1000E+02
    -16.114  0.0000E+00  0.1000E+02
    -15.997  0.0000E+00  0.1000E+02
    -15.880  0.0000E+00  0.1000E+02
    -15.763  0.0000E+00  0.1000E+02
    -15.646  0.0000E+00  0.1000E+02
    -15.529  0.0000E+00  0.1000E+02
    -15.412  0.0000E+00  0.1000E+02
    -15.295  0.0000E+00  0.1000E+02
    -15.178  0.0000E+00  0.1000E+02
    -15.061  0.0000E+00  0.1000E+02
    -14.944  0.0000E+00  0.1000E+02
    -14.827  0.0000E+00  0.1000E+02
    -14.710  0.0000E+00  0.1000E+02
    -14.593  0.0000E+00  0.1000E+02
    -14.476  0.0000E+00  0.1000E+02
    -14.359  0.0000E+00  0.1000E+02
    -14.242  0.0000E+00  0.1000E+02
    -14.125  0.0000E+00  0.1000E+02
    -14.008  0.0000E+00  0.1000E+02
    -13.891  0.0000E+00  0.1000E+02
    -13.774  0.0000E+00  0.1000E+02
    -13.657  0.0000E+00  0.1000E+02
    -13.540  0.0000E+00  0.1000E+02
    -13.423  0.0000E+00  0.1000E+02
    -13.306  0.0000E+00  0.1000E+02
    -13.189  0.0000E+00  0.1000E+02
    -13.072  0.0000E+00  0.1000E+02
    -12.955  0.0000E+00  0.1000E+02
    -12.838  0.0000E+00  0.1000E+02
    -12.721  0.0000E+00  0.1000E+02
    -12.604  0.0000E+00  0.1000E+02
    -12.487  0.0000E+00  0.1000E+02
    -12.370  0.0000E+00  0.1000E+02
    -12.253  0.0000E+00  0.1000E+02
    -12.136  0.0000E+00  0.1000E+02
    -12.019  0.0000E+00  0.1000E+02
    -11.902  0.0000E+00  0.1000E+02
    -11.785  0.0000E+00  0.1000E+02
    -11.668  0.0000E+00  0.1000E+02
    -11.551  0.0000E+00  0.1000E+02
    -11.434  0.0000E+00  0.1000E+02
    -11.317  0.0000E+00  0.1000E+02
    -11.200  0.0000E+00  0.1000E+02
    -11.083  0.0000E+00  0.1000E+02
    -10.966  0.0000E+00  0.1000E+02
    -10.849  0.0000E+00  0.1000E+02
    -10.732  0.0000E+00  0.1000E+02
    -10.615  0.0000E+00  0.1000E+02
    -10.498  0.0000E+00  0.1000E+02
    -10.381  0.0000E+00  0.1000E+02
    -10.264  0.0000E+00  0.1000E+02
    -10.147  0.0000E+00  0.1000E+02
    -10.030  0.0000E+00  0.1000E+02
     -9.913  0.0000E+00  0.1000E+02
     -9.796  0.0000E+00  0.1000E+02
     -9.679  0.0000E+00  0.1000E+02
     -9.562  0.0000E+00  0.1000E+02
     -9.445  0.0000E+00  0.1000E+02
     -9.328  0.0000E+00  0.1000E+02
     -9.211  0.1293E-11  0.1000E+02
     -9.094  0.1232E-03  0.1000E+02
     -8.977  0.5519E+00  0.1006E+02
     -8.860  0.2679E+01  0.1038E+02
     -8.743  0.1507E+01  0.1055E+02
     -8.626  0.1135E+01  0.1069E+02
     -8.509  0.9674E+00  0.1080E+02
     -8.392  0.8967E+00  0.1091E+02
     -8.275  0.1869E+01  0.1112E+02
     -8.158  0.3195E+01  0.1150E+02
     -8.041  0.2530E+01  0.1179E+02
     -7.924  0.2192E+01  0.1205E+02
     -7.807  0.2290E+01  0.1232E+02
     -7.690  0.2947E+01  0.1266E+02
     -7.573  0.1419E+01  0.1283E+02
     -7.456  0.7629E+00  0.1292E+02
     -7.339  0.8681E+00  0.1302E+02
     -7.222  0.1382E+01  0.1318E+02
     -7.105  0.6237E+01  0.1391E+02
     -6.988  0.7611E+00  0.1400E+02
     -6.871  0.4059E-04  0.1400E+02
     -6.754  0.8863E-13  0.1400E+02
     -6.637  0.0000E+00  0.1400E+02
     -6.520  0.0000E+00  0.1400E+02
     -6.403  0.0000E+00  0.1400E+02
     -6.286  0.0000E+00  0.1400E+02
     -6.169  0.0000E+00  0.1400E+02
     -6.052  0.0000E+00  0.1400E+02
     -5.935  0.0000E+00  0.1400E+02
     -5.818  0.0000E+00  0.1400E+02
     -5.701  0.0000E+00  0.1400E+02
     -5.584  0.0000E+00  0.1400E+02
     -5.467  0.0000E+00  0.1400E+02
     -5.349  0.0000E+00  0.1400E+02
     -5.232  0.0000E+00  0.1400E+02
     -5.115  0.0000E+00  0.1400E+02
     -4.998  0.0000E+00  0.1400E+02
     -4.881  0.0000E+00  0.1400E+02
     -4.764  0.0000E+00  0.1400E+02
     -4.647  0.0000E+00  0.1400E+02
     -4.530  0.0000E+00  0.1400E+02
     -4.413  0.0000E+00  0.1400E+02
     -4.296  0.0000E+00  0.1400E+02
     -4.179  0.0000E+00  0.1400E+02
     -4.062  0.0000E+00  0.1400E+02
     -3.945  0.0000E+00  0.1400E+02
     -3.828  0.0000E+00  0.1400E+02
     -3.711  0.7736E-11  0.1400E+02
     -3.594  0.2147E-03  0.1400E+02
     -3.477  0.6085E+00  0.1407E+02
     -3.360  0.4067E+01  0.1455E+02
     -3.243  0.2982E+01  0.1490E+02
     -3.126  0.2006E+01  0.1513E+02
     -3.009  0.9037E+00  0.1524E+02
     -2.892  0.1367E+01  0.1540E+02
     -2.775  0.1209E+01  0.1554E+02
     -2.658  0.9921E+00  0.1565E+02
     -2.541  0.9043E+00  0.1576E+02
     -2.424  0.8520E+00  0.1586E+02
     -2.307  0.8194E+00  0.1596E+02
     -2.190  0.7990E+00  0.1605E+02
     -2.073  0.7883E+00  0.1614E+02
     -1.956  0.7909E+00  0.1623E+02
     -1.839  0.8001E+00  0.1633E+02
     -1.722  0.8279E+00  0.1642E+02
     -1.605  0.8833E+00  0.1653E+02
     -1.488  0.9910E+00  0.1664E+02
     -1.371  0.1367E+01  0.1680E+02
     -1.254  0.1404E+01  0.1697E+02
     -1.137  0.7105E+00  0.1705E+02
     -1.020  0.3030E+00  0.1709E+02
     -0.903  0.2949E+00  0.1712E+02
     -0.786  0.2948E+00  0.1716E+02
     -0.669  0.2940E+00  0.1719E+02
     -0.552  0.2913E+00  0.1722E+02
     -0.435  0.3553E+00  0.1727E+02
     -0.318  0.8889E+00  0.1737E+02
     -0.201  0.6852E+00  0.1745E+02
     -0.084  0.6126E+00  0.1752E+02
      0.033  0.7700E+00  0.1761E+02
      0.150  0.1568E+01  0.1779E+02
      0.267  0.2501E+01  0.1809E+02
      0.384  0.2212E+01  0.1835E+02
      0.501  0.3901E+01  0.1880E+02
      0.618  0.2050E+01  0.1904E+02
      0.735  0.8964E+00  0.1915E+02
      0.852  0.3867E+01  0.1960E+02
      0.969  0.4656E+01  0.2014E+02
      1.086  0.4226E+01  0.2064E+02
      1.203  0.5601E+01  0.2129E+02
      1.320  0.3942E+01  0.2176E+02
      1.437  0.3214E+01  0.2213E+02
      1.554  0.3611E+01  0.2255E+02
      1.671  0.2540E+01  0.2285E+02
      1.788  0.2239E+01  0.2311E+02
      1.905  0.2079E+01  0.2336E+02
      2.022  0.1761E+01  0.2356E+02
      2.139  0.1511E+01  0.2374E+02
      2.256  0.1510E+01  0.2392E+02
      2.373  0.2382E+01  0.2419E+02
      2.490  0.3665E+01  0.2462E+02
      2.607  0.3211E+01  0.2500E+02
      2.724  0.1436E+01  0.2517E+02
      2.841  0.1189E+01  0.2531E+02
      2.958  0.1196E+01  0.2545E+02
      3.075  0.6032E+00  0.2552E+02
      3.192  0.8443E+00  0.2562E+02
      3.309  0.1031E+01  0.2574E+02
      3.426  0.1106E+01  0.2587E+02
      3.543  0.2267E+01  0.2613E+02
      3.660  0.1552E+01  0.2631E+02
      3.777  0.2082E+01  0.2656E+02
      3.894  0.1279E+01  0.2671E+02
      4.011  0.1330E+01  0.2686E+02
      4.128  0.2045E+01  0.2710E+02
      4.245  0.2629E+01  0.2741E+02
      4.362  0.4237E+01  0.2790E+02
      4.479  0.4099E+01  0.2838E+02
      4.596  0.4340E+01  0.2889E+02
      4.713  0.2715E+01  0.2921E+02
      4.830  0.2953E+01  0.2955E+02
      4.947  0.4545E+01  0.3009E+02
      5.064  0.1739E+01  0.3029E+02
      5.181  0.1431E+01  0.3046E+02
      5.298  0.1483E+01  0.3063E+02
      5.415  0.2026E+01  0.3087E+02
      5.532  0.2692E+01  0.3118E+02
      5.649  0.1756E+01  0.3139E+02
      5.766  0.1100E+01  0.3152E+02
      5.883  0.1913E+01  0.3174E+02
      6.000  0.3526E+01  0.3215E+02
      6.117  0.2049E+01  0.3239E+02
      6.234  0.2880E+01  0.3273E+02
      6.351  0.1447E+01  0.3290E+02
      6.468  0.2260E+01  0.3316E+02
      6.585  0.1762E+01  0.3337E+02
      6.702  0.1775E+01  0.3358E+02
      6.819  0.2580E+01  0.3388E+02
      6.936  0.1653E+01  0.3407E+02
      7.053  0.1034E+01  0.3419E+02
      7.170  0.1872E+01  0.3441E+02
      7.287  0.1181E+01  0.3455E+02
      7.404  0.1379E+01  0.3471E+02
      7.521  0.1549E+01  0.3489E+02
      7.638  0.6436E+00  0.3497E+02
      7.755  0.8290E+00  0.3507E+02
      7.872  0.1148E+01  0.3520E+02
      7.989  0.1191E+01  0.3534E+02
      8.106  0.9304E+00  0.3545E+02
      8.223  0.4950E+00  0.3551E+02
      8.340  0.5344E+00  0.3557E+02
      8.457  0.5856E+00  0.3564E+02
      8.574  0.7759E+00  0.3573E+02
      8.691  0.2719E+00  0.3576E+02
      8.808  0.6642E-01  0.3577E+02
      8.925  0.7488E-01  0.3578E+02
      9.042  0.7206E-01  0.3578E+02
      9.159  0.6860E-01  0.3579E+02
      9.276  0.7265E-01  0.3580E+02
      9.393  0.7218E-01  0.3581E+02
      9.510  0.6941E-01  0.3582E+02
      9.627  0.6584E-01  0.3583E+02
      9.744  0.7182E-01  0.3583E+02
      9.861  0.7784E-01  0.3584E+02
      9.978  0.7298E-01  0.3585E+02
     10.095  0.7846E-01  0.3586E+02
     10.212  0.8241E-01  0.3587E+02
     10.329  0.8738E-01  0.3588E+02
     10.446  0.9006E-01  0.3589E+02
     10.563  0.9288E-01  0.3590E+02
     10.680  0.7881E-01  0.3591E+02
     10.797  0.1013E+00  0.3592E+02
     10.914  0.2014E+00  0.3595E+02
     11.031  0.1309E+00  0.3596E+02
     11.148  0.2217E+00  0.3599E+02
     11.265  0.1038E+00  0.3600E+02
     11.382  0.1326E-02  0.3600E+02
     11.499  0.1884E-08  0.3600E+02
     11.616  0.0000E+00  0.3600E+02
     11.733  0.0000E+00  0.3600E+02
     11.850  0.0000E+00  0.3600E+02
     11.967  0.0000E+00  0.3600E+02
     12.084  0.0000E+00  0.3600E+02
     12.201  0.0000E+00  0.3600E+02
     12.318  0.0000E+00  0.3600E+02
     12.435  0.0000E+00  0.3600E+02
     12.552  0.0000E+00  0.3600E+02
     12.669  0.0000E+00  0.3600E+02
     12.786  0.0000E+00  0.3600E+02
