 vasp.5.4.4.18Apr17-6-g9f103f2a35 (build Dec 22 2021 20:15:33) complex          
  
 executed on             LinuxIFC date 2022.06.08  16:36:34
 running on   32 total cores
 distrk:  each k-point on   32 cores,    1 groups
 distr:  one band on NCORES_PER_BAND=   8 cores,    4 groups


--------------------------------------------------------------------------------------------------------


 INCAR:
 POTCAR:    PAW_PBE Ga 08Apr2002                  
 POTCAR:    PAW_PBE Bi_d 06Sep2000                
 POTCAR:    PAW_PBE As 22Sep2009                  
 POTCAR:    PAW_PBE Ga 08Apr2002                  
   VRHFIN =Ga: s2p1                                                             
   LEXCH  = PE                                                                  
   EATOM  =    58.8688 eV,    4.3267 Ry                                         
                                                                                
   TITEL  = PAW_PBE Ga 08Apr2002                                                
   LULTRA =        F    use ultrasoft PP ?                                      
   IUNSCR =        1    unscreen: 0-lin 1-nonlin 2-no                           
   RPACOR =    2.170    partial core radius                                     
   POMASS =   69.723; ZVAL   =    3.000    mass and valenz                      
   RCORE  =    2.600    outmost cutoff radius                                   
   RWIGS  =    2.650; RWIGS  =    1.402    wigner-seitz radius (au A)           
   ENMAX  =  134.678; ENMIN  =  101.009 eV                                      
   ICORE  =        3    local potential                                         
   LCOR   =        T    correct aug charges                                     
   LPAW   =        T    paw PP                                                  
   EAUG   =  320.264                                                            
   DEXC   =    0.000                                                            
   RMAX   =    2.658    core radius for proj-oper                               
   RAUG   =    1.300    factor for augmentation sphere                          
   RDEP   =    2.684    radius for radial grids                                 
   RDEPT  =    2.308    core radius for aug-charge                              
                                                                                
   Atomic configuration                                                         
   10 entries                                                                   
     n  l   j            E        occ.                                          
     1  0  0.50    -10228.7830   2.0000                                         
     2  0  0.50     -1262.1604   2.0000                                         
     2  1  1.50     -1098.6333   6.0000                                         
     3  0  0.50      -148.1110   2.0000                                         
     3  1  1.50       -98.8436   6.0000                                         
     3  2  2.50       -19.1549  10.0000                                         
     4  0  0.50        -8.9483   2.0000                                         
     4  1  0.50        -2.5791   1.0000                                         
     4  2  1.50         5.4423   0.0000                                         
     4  3  2.50        -2.7416   0.0000                                         
   Description                                                                  
     l       E           TYP  RCUT    TYP  RCUT                                 
     0     -8.9483097     23  2.600                                             
     0     -5.8232215     23  2.600                                             
     1     -2.5790793     23  2.600                                             
     1      5.2230115     23  2.600                                             
     2      1.3605826     23  2.600                                             
     3     -1.3605826      7  2.600                                             
  local pseudopotential read in
  partial core-charges read in
  partial kinetic energy density read in
  atomic valenz-charges read in
  non local Contribution for L=           0  read in
    real space projection operators read in
  non local Contribution for L=           0  read in
    real space projection operators read in
  non local Contribution for L=           1  read in
    real space projection operators read in
  non local Contribution for L=           1  read in
    real space projection operators read in
  non local Contribution for L=           2  read in
    real space projection operators read in
    PAW grid and wavefunctions read in
 
   number of l-projection  operators is LMAX  =           5
   number of lm-projection operators is LMMAX =          13
 
 POTCAR:    PAW_PBE Bi_d 06Sep2000                
   VRHFIN =Bi:                                                                  
   LEXCH  = PE                                                                  
   EATOM  =  1959.2045 eV,  143.9975 Ry                                         
                                                                                
   TITEL  = PAW_PBE Bi_d 06Sep2000                                              
   LULTRA =        F    use ultrasoft PP ?                                      
   IUNSCR =        1    unscreen: 0-lin 1-nonlin 2-no                           
   RPACOR =    2.200    partial core radius                                     
   POMASS =  208.980; ZVAL   =   15.000    mass and valenz                      
   RCORE  =    2.500    outmost cutoff radius                                   
   RWIGS  =    3.090; RWIGS  =    1.635    wigner-seitz radius (au A)           
   ENMAX  =  242.839; ENMIN  =  182.129 eV                                      
   ICORE  =        3    local potential                                         
   LCOR   =        T    correct aug charges                                     
   LPAW   =        T    paw PP                                                  
   EAUG   =  442.899                                                            
   DEXC   =    0.000                                                            
   RMAX   =    2.551    core radius for proj-oper                               
   RAUG   =    1.300    factor for augmentation sphere                          
   RDEP   =    2.650    radius for radial grids                                 
   RDEPT  =    2.039    core radius for aug-charge                              
                                                                                
   Atomic configuration                                                         
   16 entries                                                                   
     n  l   j            E        occ.                                          
     1  0  0.50    -90639.6581   2.0000                                         
     2  0  0.50    -16282.4666   2.0000                                         
     2  1  1.50    -13922.8286   6.0000                                         
     3  0  0.50     -3930.4763   2.0000                                         
     3  1  1.50     -3256.7013   6.0000                                         
     3  2  2.50     -2581.6168  10.0000                                         
     4  0  0.50      -902.2614   2.0000                                         
     4  1  1.50      -681.5915   6.0000                                         
     4  2  2.50      -429.8249  10.0000                                         
     4  3  3.50      -152.6004  14.0000                                         
     5  0  0.50      -157.7156   2.0000                                         
     5  1  1.50       -95.8054   6.0000                                         
     5  2  2.50       -27.0806  10.0000                                         
     6  0  0.50       -14.4732   2.0000                                         
     6  1  1.50        -4.5702   3.0000                                         
     5  3  2.50        -2.7212   0.0000                                         
   Description                                                                  
     l       E           TYP  RCUT    TYP  RCUT                                 
     2    -27.0805982     23  2.500                                             
     2     -1.3605826     23  2.500                                             
     0    -14.4732271     23  2.500                                             
     0      6.8029130     23  2.500                                             
     1     -4.5701651     23  2.500                                             
     1     13.6058260     23  2.500                                             
     3     -1.3605826      7  2.500                                             
  local pseudopotential read in
  partial core-charges read in
  partial kinetic energy density read in
  atomic valenz-charges read in
  non local Contribution for L=           2  read in
    real space projection operators read in
  non local Contribution for L=           2  read in
    real space projection operators read in
  non local Contribution for L=           0  read in
    real space projection operators read in
  non local Contribution for L=           0  read in
    real space projection operators read in
  non local Contribution for L=           1  read in
    real space projection operators read in
  non local Contribution for L=           1  read in
    real space projection operators read in
    PAW grid and wavefunctions read in
 
   number of l-projection  operators is LMAX  =           6
   number of lm-projection operators is LMMAX =          18
 
 POTCAR:    PAW_PBE As 22Sep2009                  
   VRHFIN =As: s2p3                                                             
   LEXCH  = PE                                                                  
   EATOM  =   170.1867 eV,   12.5084 Ry                                         
                                                                                
   TITEL  = PAW_PBE As 22Sep2009                                                
   LULTRA =        F    use ultrasoft PP ?                                      
   IUNSCR =        1    unscreen: 0-lin 1-nonlin 2-no                           
   RPACOR =    1.900    partial core radius                                     
   POMASS =   74.922; ZVAL   =    5.000    mass and valenz                      
   RCORE  =    2.100    outmost cutoff radius                                   
   RWIGS  =    2.300; RWIGS  =    1.217    wigner-seitz radius (au A)           
   ENMAX  =  208.702; ENMIN  =  156.526 eV                                      
   ICORE  =        3    local potential                                         
   LCOR   =        T    correct aug charges                                     
   LPAW   =        T    paw PP                                                  
   EAUG   =  462.758                                                            
   DEXC   =    0.000                                                            
   RMAX   =    2.144    core radius for proj-oper                               
   RAUG   =    1.300    factor for augmentation sphere                          
   RDEP   =    2.140    radius for radial grids                                 
   RDEPT  =    1.956    core radius for aug-charge                              
                                                                                
   Atomic configuration                                                         
   10 entries                                                                   
     n  l   j            E        occ.                                          
     1  0  0.50    -11718.0418   2.0000                                         
     2  0  0.50     -1486.5454   2.0000                                         
     2  1  1.50     -1303.3889   6.0000                                         
     3  0  0.50      -190.2849   2.0000                                         
     3  1  1.50      -133.6555   6.0000                                         
     3  2  2.50       -40.6443  10.0000                                         
     4  0  0.50       -14.4936   2.0000                                         
     4  1  0.50        -5.1947   3.0000                                         
     4  2  1.50        -5.4423   0.0000                                         
     4  3  2.50        -5.4423   0.0000                                         
   Description                                                                  
     l       E           TYP  RCUT    TYP  RCUT                                 
     0    -14.4935570     23  2.100                                             
     0    -11.9212055     23  2.100                                             
     1     -5.1947127     23  2.100                                             
     1     27.2116520     23  2.100                                             
     2     -5.4423304     23  2.100                                             
     3     -1.3605826      7  2.100                                             
  local pseudopotential read in
  partial core-charges read in
  partial kinetic energy density read in
  atomic valenz-charges read in
  non local Contribution for L=           0  read in
    real space projection operators read in
  non local Contribution for L=           0  read in
    real space projection operators read in
  non local Contribution for L=           1  read in
    real space projection operators read in
  non local Contribution for L=           1  read in
    real space projection operators read in
  non local Contribution for L=           2  read in
    real space projection operators read in
    PAW grid and wavefunctions read in
 
   number of l-projection  operators is LMAX  =           5
   number of lm-projection operators is LMMAX =          13
 
  PAW_PBE Ga 08Apr2002                  :
 energy of atom  1       EATOM=  -58.8688
 kinetic energy error for atom=    0.0000 (will be added to EATOM!!)
  PAW_PBE Bi_d 06Sep2000                :
 energy of atom  2       EATOM=-1959.2045
 kinetic energy error for atom=    0.0049 (will be added to EATOM!!)
  PAW_PBE As 22Sep2009                  :
 energy of atom  3       EATOM= -170.1867
 kinetic energy error for atom=    0.0005 (will be added to EATOM!!)
 
 
 POSCAR: Ga2 Bi1 As1                             
  positions in direct lattice
  No initial velocities read in
 exchange correlation table for  LEXCH =        8
   RHO(1)=    0.500       N(1)  =     2000
   RHO(2)=  100.500       N(2)  =     4000
 


--------------------------------------------------------------------------------------------------------


 ion  position               nearest neighbor table
   1  0.500  0.000  0.726-   4 2.56   4 2.56   3 2.73   3 2.73
   2  0.000  0.500  0.274-   4 2.56   4 2.56   3 2.73   3 2.73
   3  0.000  0.000  0.000-   1 2.73   1 2.73   2 2.73   2 2.73
   4  0.500  0.500  0.500-   2 2.56   2 2.56   1 2.56   1 2.56
 
  LATTYP: Found a simple tetragonal cell.
 ALAT       =     4.3001408577
 C/A-ratio  =     1.4292232167
  
  Lattice vectors:
  
 A1 = (   4.3001408577,   0.0000000000,   0.0000000000)
 A2 = (   0.0000000000,   4.3001408577,   0.0000000000)
 A3 = (   0.0000000000,   0.0000000000,   6.1458611488)


Analysis of symmetry for initial positions (statically):
=====================================================================
 Subroutine PRICEL returns:
 Original cell was already a primitive cell.
 

 Routine SETGRP: Setting up the symmetry group for a 
 simple tetragonal supercell.


 Subroutine GETGRP returns: Found  8 space group operations
 (whereof  8 operations were pure point group operations)
 out of a pool of 16 trial point group operations.


The static configuration has the point symmetry D_2d.


Analysis of symmetry for dynamics (positions and initial velocities):
=====================================================================
 Subroutine PRICEL returns:
 Original cell was already a primitive cell.
 

 Routine SETGRP: Setting up the symmetry group for a 
 simple tetragonal supercell.


 Subroutine GETGRP returns: Found  8 space group operations
 (whereof  8 operations were pure point group operations)
 out of a pool of 16 trial point group operations.


The dynamic configuration has the point symmetry D_2d.


Analysis of structural, dynamic, and magnetic symmetry:
=====================================================================
 Subroutine PRICEL returns:
 Original cell was already a primitive cell.
 

 Routine SETGRP: Setting up the symmetry group for a 
 simple tetragonal supercell.


 Subroutine GETGRP returns: Found  8 space group operations
 (whereof  8 operations were pure point group operations)
 out of a pool of 16 trial point group operations.


The (compounded) configuration has the point symmetry D_2d.


 Subroutine INISYM returns: Found  8 space group operations
 (whereof  8 operations are pure point group operations),
 and found     1 'primitive' translations

 
 
 KPOINTS: K-points alon1g high symmetry lines     
  interpolating k-points between supplied coordinates
  k-points in reciprocal lattice
Space group operators:
 irot       det(A)        alpha          n_x          n_y          n_z        tau_x        tau_y        tau_z
    1     1.000000     0.000001     1.000000     0.000000     0.000000     0.000000     0.000000     0.000000
    2    -1.000000    90.000000     0.000000     0.000000    -1.000000     0.000000     0.000000     0.000000
    3     1.000000   180.000000     0.000000     0.000000     1.000000     0.000000     0.000000     0.000000
    4    -1.000000    90.000000     0.000000     0.000000     1.000000     0.000000     0.000000     0.000000
    5    -1.000000   180.000000     0.000000     1.000000     0.000000     0.000000     0.000000     0.000000
    6     1.000000   180.000000     0.707107     0.707107     0.000000     0.000000     0.000000     0.000000
    7    -1.000000   180.000000     1.000000     0.000000     0.000000     0.000000     0.000000     0.000000
    8     1.000000   180.000000     0.707107    -0.707107     0.000000     0.000000     0.000000     0.000000


--------------------------------------------------------------------------------------------------------




 Dimension of arrays:
   k-points           NKPTS =    210   k-points in BZ     NKDIM =    210   number of bands    NBANDS=     36
   number of dos      NEDOS =    301   number of ions     NIONS =      4
   non local maximal  LDIM  =      6   non local SUM 2l+1 LMDIM =     18
   total plane-waves  NPLWV =  49152
   max r-space proj   IRMAX =      1   max aug-charges    IRDMAX=  31281
   dimension x,y,z NGX =    32 NGY =   32 NGZ =   48
   dimension x,y,z NGXF=    64 NGYF=   64 NGZF=   96
   support grid    NGXF=    64 NGYF=   64 NGZF=   96
   ions per type =               2   1   1
   NGX,Y,Z   is equivalent  to a cutoff of  12.37, 12.37, 12.98 a.u.
   NGXF,Y,Z  is equivalent  to a cutoff of  24.74, 24.74, 25.97 a.u.

 SYSTEM =  Ga2BiAs                                 
 POSCAR =  Ga2 Bi1 As1                             

 Startparameter for this run:
   NWRITE =      2    write-flag & timer
   PREC   = accura    normal or accurate (medium, high low for compatibility)
   ISTART =      1    job   : 0-new  1-cont  2-samecut
   ICHARG =      2    charge: 1-file 2-atom 10-const
   ISPIN  =      1    spin polarized calculation?
   LNONCOLLINEAR =      T non collinear calculations
   LSORBIT =      T    spin-orbit coupling
   INIWAV =      1    electr: 0-lowe 1-rand  2-diag
   LASPH  =      F    aspherical Exc in radial PAW
   METAGGA=      F    non-selfconsistent MetaGGA calc.

 Electronic Relaxation 1
   ENCUT  =  500.0 eV  36.75 Ry    6.06 a.u.   7.84  7.84 11.21*2*pi/ulx,y,z
   ENINI  =  500.0     initial cutoff
   ENAUG  =  462.8 eV  augmentation charge cutoff
   NELM   =     60;   NELMIN=  2; NELMDL=  0     # of ELM steps 
   EDIFF  = 0.1E-04   stopping-criterion for ELM
   LREAL  =      F    real-space projection
   NLSPLINE    = F    spline interpolate recip. space projectors
   LCOMPAT=      F    compatible to vasp.4.4
   GGA_COMPAT  = T    GGA compatible to vasp.4.4-vasp.4.6
   LMAXPAW     = -100 max onsite density
   LMAXMIX     =    2 max onsite mixed and CHGCAR
   VOSKOWN=      0    Vosko Wilk Nusair interpolation
   ROPT   =    0.00000   0.00000   0.00000
 Ionic relaxation
   EDIFFG = -.1E-01   stopping-criterion for IOM
   NSW    =      0    number of steps for IOM
   NBLOCK =      1;   KBLOCK =      1    inner block; outer block 
   IBRION =     -1    ionic relax: 0-MD 1-quasi-New 2-CG
   NFREE  =      0    steps in history (QN), initial steepest desc. (CG)
   ISIF   =      2    stress and relaxation
   IWAVPR =     10    prediction:  0-non 1-charg 2-wave 3-comb
   ISYM   =      2    0-nonsym 1-usesym 2-fastsym
   LCORR  =      T    Harris-Foulkes like correction to forces

   POTIM  = 0.5000    time-step for ionic-motion
   TEIN   =    0.0    initial temperature
   TEBEG  =    0.0;   TEEND  =   0.0 temperature during run
   SMASS  =  -3.00    Nose mass-parameter (am)
   estimated Nose-frequenzy (Omega)   =  0.10E-29 period in steps =****** mass=  -0.423E-27a.u.
   SCALEE = 1.0000    scale energy and forces
   NPACO  =    256;   APACO  = 16.0  distance and # of slots for P.C.
   PSTRESS=    0.0 pullay stress

  Mass of Ions in am
   POMASS =  69.72208.98 74.92
  Ionic Valenz
   ZVAL   =   3.00 15.00  5.00
  Atomic Wigner-Seitz radii
   RWIGS  =  -1.00 -1.00 -1.00
  virtual crystal weights 
   VCA    =   1.00  1.00  1.00
   NELECT =      26.0000    total number of electrons
   NUPDOWN=       0.0000    fix difference up-down

 DOS related values:
   EMIN   =  10.00;   EMAX   =-10.00  energy-range for DOS
   EFERMI =   0.00
   ISMEAR =     0;   SIGMA  =   0.05  broadening in eV -4-tet -1-fermi 0-gaus

 Electronic relaxation 2 (details)
   IALGO  =     38    algorithm
   LDIAG  =      T    sub-space diagonalisation (order eigenvalues)
   LSUBROT=      F    optimize rotation matrix (better conditioning)
   TURBO    =      0    0=normal 1=particle mesh
   IRESTART =      0    0=no restart 2=restart with 2 vectors
   NREBOOT  =      0    no. of reboots
   NMIN     =      0    reboot dimension
   EREF     =   0.00    reference energy to select bands
   IMIX   =      4    mixing-type and parameters
     AMIX     =   0.40;   BMIX     =  1.00
     AMIX_MAG =   1.60;   BMIX_MAG =  1.00
     AMIN     =   0.10
     WC   =   100.;   INIMIX=   1;  MIXPRE=   1;  MAXMIX= -45

 Intra band minimization:
   WEIMIN = 0.0000     energy-eigenvalue tresh-hold
   EBREAK =  0.69E-07  absolut break condition
   DEPER  =   0.30     relativ break condition  

   TIME   =   0.40     timestep for ELM

  volume/ion in A,a.u.               =      28.41       191.73
  Fermi-wavevector in a.u.,A,eV,Ry     =   1.001267  1.892120 13.640326  1.002536
  Thomas-Fermi vector in A             =   2.133678
 
 Write flags
   LWAVE        =      F    write WAVECAR
   LDOWNSAMPLE  =      F    k-point downsampling of WAVECAR
   LCHARG       =      F    write CHGCAR
   LVTOT        =      F    write LOCPOT, total local potential
   LVHAR        =      F    write LOCPOT, Hartree potential only
   LELF         =      F    write electronic localiz. function (ELF)
   LORBIT       =      0    0 simple, 1 ext, 2 COOP (PROOUT), +10 PAW based schemes


 Dipole corrections
   LMONO  =      F    monopole corrections only (constant potential shift)
   LDIPOL =      F    correct potential (dipole corrections)
   IDIPOL =      0    1-x, 2-y, 3-z, 4-all directions 
   EPSILON=  1.0000000 bulk dielectric constant

 Exchange correlation treatment:
   GGA     =    --    GGA type
   LEXCH   =     8    internal setting for exchange type
   VOSKOWN=      0    Vosko Wilk Nusair interpolation
   LHFCALC =     F    Hartree Fock is set to
   LHFONE  =     F    Hartree Fock one center treatment
   AEXX    =    0.0000 exact exchange contribution

 Linear response parameters
   LEPSILON=     F    determine dielectric tensor
   LRPA    =     F    only Hartree local field effects (RPA)
   LNABLA  =     F    use nabla operator in PAW spheres
   LVEL    =     F    velocity operator in full k-point grid
   LINTERFAST=   F  fast interpolation
   KINTER  =     0    interpolate to denser k-point grid
   CSHIFT  =0.1000    complex shift for real part using Kramers Kronig
   OMEGAMAX=  -1.0    maximum frequency
   DEG_THRESHOLD= 0.2000000E-02 threshold for treating states as degnerate
   RTIME   =   -0.100 relaxation time in fs
  (WPLASMAI=    0.000 imaginary part of plasma frequency in eV, 0.658/RTIME)
   DFIELD  = 0.0000000 0.0000000 0.0000000 field for delta impulse in time
 
 Orbital magnetization related:
   ORBITALMAG=     F  switch on orbital magnetization
   LCHIMAG   =     F  perturbation theory with respect to B field
   DQ        =  0.001000  dq finite difference perturbation B field
   LLRAUG    =     F  two centre corrections for induced B field



--------------------------------------------------------------------------------------------------------


 Static calculation
 charge density and potential will be updated during run
 non collinear spin polarized calculation
 Variant of blocked Davidson
 Davidson routine will perform the subspace rotation
 perform sub-space diagonalisation
    after iterative eigenvector-optimisation
 modified Broyden-mixing scheme, WC =      100.0
 initial mixing is a Kerker type mixing with AMIX =  0.4000 and BMIX =      1.0000
 Hartree-type preconditioning will be used
 using additional bands           23
 reciprocal scheme for non local part
 use partial core corrections
 calculate Harris-corrections to forces 
   (improved forces if not selfconsistent)
 use gradient corrections 
 use of overlap-Matrix (Vanderbilt PP)
 Gauss-broadening in eV      SIGMA  =   0.05


--------------------------------------------------------------------------------------------------------


  energy-cutoff  :      500.00
  volume of cell :      113.64
      direct lattice vectors                 reciprocal lattice vectors
     4.300140858  0.000000000  0.000000000     0.232550522  0.000000000  0.000000000
     0.000000000  4.300140858  0.000000000     0.000000000  0.232550522  0.000000000
     0.000000000  0.000000000  6.145861149     0.000000000  0.000000000  0.162711128

  length of vectors
     4.300140858  4.300140858  6.145861149     0.232550522  0.232550522  0.162711128


 
 old parameters found on file WAVECAR:
  energy-cutoff  :      500.00
  volume of cell :      113.64
      direct lattice vectors                 reciprocal lattice vectors
     4.300140858  0.000000000  0.000000000     0.232550522  0.000000000  0.000000000
     0.000000000  4.300140858  0.000000000     0.000000000  0.232550522  0.000000000
     0.000000000  0.000000000  6.145861149     0.000000000  0.000000000  0.162711128

  length of vectors

 
 k-points in units of 2pi/SCALE and weight: K-points alon1g high symmetry lines     
   0.11627526  0.11627526  0.00000000       0.005
   0.11459011  0.11459011  0.00000000       0.005
   0.11290496  0.11290496  0.00000000       0.005
   0.11121981  0.11121981  0.00000000       0.005
   0.10953467  0.10953467  0.00000000       0.005
   0.10784952  0.10784952  0.00000000       0.005
   0.10616437  0.10616437  0.00000000       0.005
   0.10447922  0.10447922  0.00000000       0.005
   0.10279407  0.10279407  0.00000000       0.005
   0.10110892  0.10110892  0.00000000       0.005
   0.09942377  0.09942377  0.00000000       0.005
   0.09773863  0.09773863  0.00000000       0.005
   0.09605348  0.09605348  0.00000000       0.005
   0.09436833  0.09436833  0.00000000       0.005
   0.09268318  0.09268318  0.00000000       0.005
   0.09099803  0.09099803  0.00000000       0.005
   0.08931288  0.08931288  0.00000000       0.005
   0.08762773  0.08762773  0.00000000       0.005
   0.08594258  0.08594258  0.00000000       0.005
   0.08425744  0.08425744  0.00000000       0.005
   0.08257229  0.08257229  0.00000000       0.005
   0.08088714  0.08088714  0.00000000       0.005
   0.07920199  0.07920199  0.00000000       0.005
   0.07751684  0.07751684  0.00000000       0.005
   0.07583169  0.07583169  0.00000000       0.005
   0.07414654  0.07414654  0.00000000       0.005
   0.07246139  0.07246139  0.00000000       0.005
   0.07077625  0.07077625  0.00000000       0.005
   0.06909110  0.06909110  0.00000000       0.005
   0.06740595  0.06740595  0.00000000       0.005
   0.06572080  0.06572080  0.00000000       0.005
   0.06403565  0.06403565  0.00000000       0.005
   0.06235050  0.06235050  0.00000000       0.005
   0.06066535  0.06066535  0.00000000       0.005
   0.05898020  0.05898020  0.00000000       0.005
   0.05729506  0.05729506  0.00000000       0.005
   0.05560991  0.05560991  0.00000000       0.005
   0.05392476  0.05392476  0.00000000       0.005
   0.05223961  0.05223961  0.00000000       0.005
   0.05055446  0.05055446  0.00000000       0.005
   0.04886931  0.04886931  0.00000000       0.005
   0.04718416  0.04718416  0.00000000       0.005
   0.04549902  0.04549902  0.00000000       0.005
   0.04381387  0.04381387  0.00000000       0.005
   0.04212872  0.04212872  0.00000000       0.005
   0.04044357  0.04044357  0.00000000       0.005
   0.03875842  0.03875842  0.00000000       0.005
   0.03707327  0.03707327  0.00000000       0.005
   0.03538812  0.03538812  0.00000000       0.005
   0.03370297  0.03370297  0.00000000       0.005
   0.03201783  0.03201783  0.00000000       0.005
   0.03033268  0.03033268  0.00000000       0.005
   0.02864753  0.02864753  0.00000000       0.005
   0.02696238  0.02696238  0.00000000       0.005
   0.02527723  0.02527723  0.00000000       0.005
   0.02359208  0.02359208  0.00000000       0.005
   0.02190693  0.02190693  0.00000000       0.005
   0.02022178  0.02022178  0.00000000       0.005
   0.01853664  0.01853664  0.00000000       0.005
   0.01685149  0.01685149  0.00000000       0.005
   0.01516634  0.01516634  0.00000000       0.005
   0.01348119  0.01348119  0.00000000       0.005
   0.01179604  0.01179604  0.00000000       0.005
   0.01011089  0.01011089  0.00000000       0.005
   0.00842574  0.00842574  0.00000000       0.005
   0.00674059  0.00674059  0.00000000       0.005
   0.00505545  0.00505545  0.00000000       0.005
   0.00337030  0.00337030  0.00000000       0.005
   0.00168515  0.00168515  0.00000000       0.005
   0.00000000  0.00000000  0.00000000       0.005
   0.00000000  0.00000000  0.00000000       0.005
   0.00000000  0.00000000  0.00117907       0.005
   0.00000000  0.00000000  0.00235813       0.005
   0.00000000  0.00000000  0.00353720       0.005
   0.00000000  0.00000000  0.00471626       0.005
   0.00000000  0.00000000  0.00589533       0.005
   0.00000000  0.00000000  0.00707440       0.005
   0.00000000  0.00000000  0.00825346       0.005
   0.00000000  0.00000000  0.00943253       0.005
   0.00000000  0.00000000  0.01061160       0.005
   0.00000000  0.00000000  0.01179066       0.005
   0.00000000  0.00000000  0.01296973       0.005
   0.00000000  0.00000000  0.01414879       0.005
   0.00000000  0.00000000  0.01532786       0.005
   0.00000000  0.00000000  0.01650693       0.005
   0.00000000  0.00000000  0.01768599       0.005
   0.00000000  0.00000000  0.01886506       0.005
   0.00000000  0.00000000  0.02004412       0.005
   0.00000000  0.00000000  0.02122319       0.005
   0.00000000  0.00000000  0.02240226       0.005
   0.00000000  0.00000000  0.02358132       0.005
   0.00000000  0.00000000  0.02476039       0.005
   0.00000000  0.00000000  0.02593946       0.005
   0.00000000  0.00000000  0.02711852       0.005
   0.00000000  0.00000000  0.02829759       0.005
   0.00000000  0.00000000  0.02947665       0.005
   0.00000000  0.00000000  0.03065572       0.005
   0.00000000  0.00000000  0.03183479       0.005
   0.00000000  0.00000000  0.03301385       0.005
   0.00000000  0.00000000  0.03419292       0.005
   0.00000000  0.00000000  0.03537198       0.005
   0.00000000  0.00000000  0.03655105       0.005
   0.00000000  0.00000000  0.03773012       0.005
   0.00000000  0.00000000  0.03890918       0.005
   0.00000000  0.00000000  0.04008825       0.005
   0.00000000  0.00000000  0.04126732       0.005
   0.00000000  0.00000000  0.04244638       0.005
   0.00000000  0.00000000  0.04362545       0.005
   0.00000000  0.00000000  0.04480451       0.005
   0.00000000  0.00000000  0.04598358       0.005
   0.00000000  0.00000000  0.04716265       0.005
   0.00000000  0.00000000  0.04834171       0.005
   0.00000000  0.00000000  0.04952078       0.005
   0.00000000  0.00000000  0.05069984       0.005
   0.00000000  0.00000000  0.05187891       0.005
   0.00000000  0.00000000  0.05305798       0.005
   0.00000000  0.00000000  0.05423704       0.005
   0.00000000  0.00000000  0.05541611       0.005
   0.00000000  0.00000000  0.05659517       0.005
   0.00000000  0.00000000  0.05777424       0.005
   0.00000000  0.00000000  0.05895331       0.005
   0.00000000  0.00000000  0.06013237       0.005
   0.00000000  0.00000000  0.06131144       0.005
   0.00000000  0.00000000  0.06249051       0.005
   0.00000000  0.00000000  0.06366957       0.005
   0.00000000  0.00000000  0.06484864       0.005
   0.00000000  0.00000000  0.06602770       0.005
   0.00000000  0.00000000  0.06720677       0.005
   0.00000000  0.00000000  0.06838584       0.005
   0.00000000  0.00000000  0.06956490       0.005
   0.00000000  0.00000000  0.07074397       0.005
   0.00000000  0.00000000  0.07192303       0.005
   0.00000000  0.00000000  0.07310210       0.005
   0.00000000  0.00000000  0.07428117       0.005
   0.00000000  0.00000000  0.07546023       0.005
   0.00000000  0.00000000  0.07663930       0.005
   0.00000000  0.00000000  0.07781837       0.005
   0.00000000  0.00000000  0.07899743       0.005
   0.00000000  0.00000000  0.08017650       0.005
   0.00000000  0.00000000  0.08135556       0.005
   0.00000000  0.00000000  0.08135556       0.005
   0.00000000  0.00168515  0.08135556       0.005
   0.00000000  0.00337030  0.08135556       0.005
   0.00000000  0.00505545  0.08135556       0.005
   0.00000000  0.00674059  0.08135556       0.005
   0.00000000  0.00842574  0.08135556       0.005
   0.00000000  0.01011089  0.08135556       0.005
   0.00000000  0.01179604  0.08135556       0.005
   0.00000000  0.01348119  0.08135556       0.005
   0.00000000  0.01516634  0.08135556       0.005
   0.00000000  0.01685149  0.08135556       0.005
   0.00000000  0.01853664  0.08135556       0.005
   0.00000000  0.02022178  0.08135556       0.005
   0.00000000  0.02190693  0.08135556       0.005
   0.00000000  0.02359208  0.08135556       0.005
   0.00000000  0.02527723  0.08135556       0.005
   0.00000000  0.02696238  0.08135556       0.005
   0.00000000  0.02864753  0.08135556       0.005
   0.00000000  0.03033268  0.08135556       0.005
   0.00000000  0.03201783  0.08135556       0.005
   0.00000000  0.03370297  0.08135556       0.005
   0.00000000  0.03538812  0.08135556       0.005
   0.00000000  0.03707327  0.08135556       0.005
   0.00000000  0.03875842  0.08135556       0.005
   0.00000000  0.04044357  0.08135556       0.005
   0.00000000  0.04212872  0.08135556       0.005
   0.00000000  0.04381387  0.08135556       0.005
   0.00000000  0.04549902  0.08135556       0.005
   0.00000000  0.04718416  0.08135556       0.005
   0.00000000  0.04886931  0.08135556       0.005
   0.00000000  0.05055446  0.08135556       0.005
   0.00000000  0.05223961  0.08135556       0.005
   0.00000000  0.05392476  0.08135556       0.005
   0.00000000  0.05560991  0.08135556       0.005
   0.00000000  0.05729506  0.08135556       0.005
   0.00000000  0.05898020  0.08135556       0.005
   0.00000000  0.06066535  0.08135556       0.005
   0.00000000  0.06235050  0.08135556       0.005
   0.00000000  0.06403565  0.08135556       0.005
   0.00000000  0.06572080  0.08135556       0.005
   0.00000000  0.06740595  0.08135556       0.005
   0.00000000  0.06909110  0.08135556       0.005
   0.00000000  0.07077625  0.08135556       0.005
   0.00000000  0.07246139  0.08135556       0.005
   0.00000000  0.07414654  0.08135556       0.005
   0.00000000  0.07583169  0.08135556       0.005
   0.00000000  0.07751684  0.08135556       0.005
   0.00000000  0.07920199  0.08135556       0.005
   0.00000000  0.08088714  0.08135556       0.005
   0.00000000  0.08257229  0.08135556       0.005
   0.00000000  0.08425744  0.08135556       0.005
   0.00000000  0.08594258  0.08135556       0.005
   0.00000000  0.08762773  0.08135556       0.005
   0.00000000  0.08931288  0.08135556       0.005
   0.00000000  0.09099803  0.08135556       0.005
   0.00000000  0.09268318  0.08135556       0.005
   0.00000000  0.09436833  0.08135556       0.005
   0.00000000  0.09605348  0.08135556       0.005
   0.00000000  0.09773863  0.08135556       0.005
   0.00000000  0.09942377  0.08135556       0.005
   0.00000000  0.10110892  0.08135556       0.005
   0.00000000  0.10279407  0.08135556       0.005
   0.00000000  0.10447922  0.08135556       0.005
   0.00000000  0.10616437  0.08135556       0.005
   0.00000000  0.10784952  0.08135556       0.005
   0.00000000  0.10953467  0.08135556       0.005
   0.00000000  0.11121981  0.08135556       0.005
   0.00000000  0.11290496  0.08135556       0.005
   0.00000000  0.11459011  0.08135556       0.005
   0.00000000  0.11627526  0.08135556       0.005
 
 k-points in reciprocal lattice and weights: K-points alon1g high symmetry lines     
   0.50000000  0.50000000  0.00000000       0.005
   0.49275362  0.49275362  0.00000000       0.005
   0.48550725  0.48550725  0.00000000       0.005
   0.47826087  0.47826087  0.00000000       0.005
   0.47101449  0.47101449  0.00000000       0.005
   0.46376812  0.46376812  0.00000000       0.005
   0.45652174  0.45652174  0.00000000       0.005
   0.44927536  0.44927536  0.00000000       0.005
   0.44202899  0.44202899  0.00000000       0.005
   0.43478261  0.43478261  0.00000000       0.005
   0.42753623  0.42753623  0.00000000       0.005
   0.42028986  0.42028986  0.00000000       0.005
   0.41304348  0.41304348  0.00000000       0.005
   0.40579710  0.40579710  0.00000000       0.005
   0.39855072  0.39855072  0.00000000       0.005
   0.39130435  0.39130435  0.00000000       0.005
   0.38405797  0.38405797  0.00000000       0.005
   0.37681159  0.37681159  0.00000000       0.005
   0.36956522  0.36956522  0.00000000       0.005
   0.36231884  0.36231884  0.00000000       0.005
   0.35507246  0.35507246  0.00000000       0.005
   0.34782609  0.34782609  0.00000000       0.005
   0.34057971  0.34057971  0.00000000       0.005
   0.33333333  0.33333333  0.00000000       0.005
   0.32608696  0.32608696  0.00000000       0.005
   0.31884058  0.31884058  0.00000000       0.005
   0.31159420  0.31159420  0.00000000       0.005
   0.30434783  0.30434783  0.00000000       0.005
   0.29710145  0.29710145  0.00000000       0.005
   0.28985507  0.28985507  0.00000000       0.005
   0.28260870  0.28260870  0.00000000       0.005
   0.27536232  0.27536232  0.00000000       0.005
   0.26811594  0.26811594  0.00000000       0.005
   0.26086957  0.26086957  0.00000000       0.005
   0.25362319  0.25362319  0.00000000       0.005
   0.24637681  0.24637681  0.00000000       0.005
   0.23913043  0.23913043  0.00000000       0.005
   0.23188406  0.23188406  0.00000000       0.005
   0.22463768  0.22463768  0.00000000       0.005
   0.21739130  0.21739130  0.00000000       0.005
   0.21014493  0.21014493  0.00000000       0.005
   0.20289855  0.20289855  0.00000000       0.005
   0.19565217  0.19565217  0.00000000       0.005
   0.18840580  0.18840580  0.00000000       0.005
   0.18115942  0.18115942  0.00000000       0.005
   0.17391304  0.17391304  0.00000000       0.005
   0.16666667  0.16666667  0.00000000       0.005
   0.15942029  0.15942029  0.00000000       0.005
   0.15217391  0.15217391  0.00000000       0.005
   0.14492754  0.14492754  0.00000000       0.005
   0.13768116  0.13768116  0.00000000       0.005
   0.13043478  0.13043478  0.00000000       0.005
   0.12318841  0.12318841  0.00000000       0.005
   0.11594203  0.11594203  0.00000000       0.005
   0.10869565  0.10869565  0.00000000       0.005
   0.10144928  0.10144928  0.00000000       0.005
   0.09420290  0.09420290  0.00000000       0.005
   0.08695652  0.08695652  0.00000000       0.005
   0.07971014  0.07971014  0.00000000       0.005
   0.07246377  0.07246377  0.00000000       0.005
   0.06521739  0.06521739  0.00000000       0.005
   0.05797101  0.05797101  0.00000000       0.005
   0.05072464  0.05072464  0.00000000       0.005
   0.04347826  0.04347826  0.00000000       0.005
   0.03623188  0.03623188  0.00000000       0.005
   0.02898551  0.02898551  0.00000000       0.005
   0.02173913  0.02173913  0.00000000       0.005
   0.01449275  0.01449275  0.00000000       0.005
   0.00724638  0.00724638  0.00000000       0.005
   0.00000000  0.00000000  0.00000000       0.005
   0.00000000  0.00000000  0.00000000       0.005
   0.00000000  0.00000000  0.00724638       0.005
   0.00000000  0.00000000  0.01449275       0.005
   0.00000000  0.00000000  0.02173913       0.005
   0.00000000  0.00000000  0.02898551       0.005
   0.00000000  0.00000000  0.03623188       0.005
   0.00000000  0.00000000  0.04347826       0.005
   0.00000000  0.00000000  0.05072464       0.005
   0.00000000  0.00000000  0.05797101       0.005
   0.00000000  0.00000000  0.06521739       0.005
   0.00000000  0.00000000  0.07246377       0.005
   0.00000000  0.00000000  0.07971014       0.005
   0.00000000  0.00000000  0.08695652       0.005
   0.00000000  0.00000000  0.09420290       0.005
   0.00000000  0.00000000  0.10144928       0.005
   0.00000000  0.00000000  0.10869565       0.005
   0.00000000  0.00000000  0.11594203       0.005
   0.00000000  0.00000000  0.12318841       0.005
   0.00000000  0.00000000  0.13043478       0.005
   0.00000000  0.00000000  0.13768116       0.005
   0.00000000  0.00000000  0.14492754       0.005
   0.00000000  0.00000000  0.15217391       0.005
   0.00000000  0.00000000  0.15942029       0.005
   0.00000000  0.00000000  0.16666667       0.005
   0.00000000  0.00000000  0.17391304       0.005
   0.00000000  0.00000000  0.18115942       0.005
   0.00000000  0.00000000  0.18840580       0.005
   0.00000000  0.00000000  0.19565217       0.005
   0.00000000  0.00000000  0.20289855       0.005
   0.00000000  0.00000000  0.21014493       0.005
   0.00000000  0.00000000  0.21739130       0.005
   0.00000000  0.00000000  0.22463768       0.005
   0.00000000  0.00000000  0.23188406       0.005
   0.00000000  0.00000000  0.23913043       0.005
   0.00000000  0.00000000  0.24637681       0.005
   0.00000000  0.00000000  0.25362319       0.005
   0.00000000  0.00000000  0.26086957       0.005
   0.00000000  0.00000000  0.26811594       0.005
   0.00000000  0.00000000  0.27536232       0.005
   0.00000000  0.00000000  0.28260870       0.005
   0.00000000  0.00000000  0.28985507       0.005
   0.00000000  0.00000000  0.29710145       0.005
   0.00000000  0.00000000  0.30434783       0.005
   0.00000000  0.00000000  0.31159420       0.005
   0.00000000  0.00000000  0.31884058       0.005
   0.00000000  0.00000000  0.32608696       0.005
   0.00000000  0.00000000  0.33333333       0.005
   0.00000000  0.00000000  0.34057971       0.005
   0.00000000  0.00000000  0.34782609       0.005
   0.00000000  0.00000000  0.35507246       0.005
   0.00000000  0.00000000  0.36231884       0.005
   0.00000000  0.00000000  0.36956522       0.005
   0.00000000  0.00000000  0.37681159       0.005
   0.00000000  0.00000000  0.38405797       0.005
   0.00000000  0.00000000  0.39130435       0.005
   0.00000000  0.00000000  0.39855072       0.005
   0.00000000  0.00000000  0.40579710       0.005
   0.00000000  0.00000000  0.41304348       0.005
   0.00000000  0.00000000  0.42028986       0.005
   0.00000000  0.00000000  0.42753623       0.005
   0.00000000  0.00000000  0.43478261       0.005
   0.00000000  0.00000000  0.44202899       0.005
   0.00000000  0.00000000  0.44927536       0.005
   0.00000000  0.00000000  0.45652174       0.005
   0.00000000  0.00000000  0.46376812       0.005
   0.00000000  0.00000000  0.47101449       0.005
   0.00000000  0.00000000  0.47826087       0.005
   0.00000000  0.00000000  0.48550725       0.005
   0.00000000  0.00000000  0.49275362       0.005
   0.00000000  0.00000000  0.50000000       0.005
   0.00000000  0.00000000  0.50000000       0.005
   0.00000000  0.00724638  0.50000000       0.005
   0.00000000  0.01449275  0.50000000       0.005
   0.00000000  0.02173913  0.50000000       0.005
   0.00000000  0.02898551  0.50000000       0.005
   0.00000000  0.03623188  0.50000000       0.005
   0.00000000  0.04347826  0.50000000       0.005
   0.00000000  0.05072464  0.50000000       0.005
   0.00000000  0.05797101  0.50000000       0.005
   0.00000000  0.06521739  0.50000000       0.005
   0.00000000  0.07246377  0.50000000       0.005
   0.00000000  0.07971014  0.50000000       0.005
   0.00000000  0.08695652  0.50000000       0.005
   0.00000000  0.09420290  0.50000000       0.005
   0.00000000  0.10144928  0.50000000       0.005
   0.00000000  0.10869565  0.50000000       0.005
   0.00000000  0.11594203  0.50000000       0.005
   0.00000000  0.12318841  0.50000000       0.005
   0.00000000  0.13043478  0.50000000       0.005
   0.00000000  0.13768116  0.50000000       0.005
   0.00000000  0.14492754  0.50000000       0.005
   0.00000000  0.15217391  0.50000000       0.005
   0.00000000  0.15942029  0.50000000       0.005
   0.00000000  0.16666667  0.50000000       0.005
   0.00000000  0.17391304  0.50000000       0.005
   0.00000000  0.18115942  0.50000000       0.005
   0.00000000  0.18840580  0.50000000       0.005
   0.00000000  0.19565217  0.50000000       0.005
   0.00000000  0.20289855  0.50000000       0.005
   0.00000000  0.21014493  0.50000000       0.005
   0.00000000  0.21739130  0.50000000       0.005
   0.00000000  0.22463768  0.50000000       0.005
   0.00000000  0.23188406  0.50000000       0.005
   0.00000000  0.23913043  0.50000000       0.005
   0.00000000  0.24637681  0.50000000       0.005
   0.00000000  0.25362319  0.50000000       0.005
   0.00000000  0.26086957  0.50000000       0.005
   0.00000000  0.26811594  0.50000000       0.005
   0.00000000  0.27536232  0.50000000       0.005
   0.00000000  0.28260870  0.50000000       0.005
   0.00000000  0.28985507  0.50000000       0.005
   0.00000000  0.29710145  0.50000000       0.005
   0.00000000  0.30434783  0.50000000       0.005
   0.00000000  0.31159420  0.50000000       0.005
   0.00000000  0.31884058  0.50000000       0.005
   0.00000000  0.32608696  0.50000000       0.005
   0.00000000  0.33333333  0.50000000       0.005
   0.00000000  0.34057971  0.50000000       0.005
   0.00000000  0.34782609  0.50000000       0.005
   0.00000000  0.35507246  0.50000000       0.005
   0.00000000  0.36231884  0.50000000       0.005
   0.00000000  0.36956522  0.50000000       0.005
   0.00000000  0.37681159  0.50000000       0.005
   0.00000000  0.38405797  0.50000000       0.005
   0.00000000  0.39130435  0.50000000       0.005
   0.00000000  0.39855072  0.50000000       0.005
   0.00000000  0.40579710  0.50000000       0.005
   0.00000000  0.41304348  0.50000000       0.005
   0.00000000  0.42028986  0.50000000       0.005
   0.00000000  0.42753623  0.50000000       0.005
   0.00000000  0.43478261  0.50000000       0.005
   0.00000000  0.44202899  0.50000000       0.005
   0.00000000  0.44927536  0.50000000       0.005
   0.00000000  0.45652174  0.50000000       0.005
   0.00000000  0.46376812  0.50000000       0.005
   0.00000000  0.47101449  0.50000000       0.005
   0.00000000  0.47826087  0.50000000       0.005
   0.00000000  0.48550725  0.50000000       0.005
   0.00000000  0.49275362  0.50000000       0.005
   0.00000000  0.50000000  0.50000000       0.005
 
 position of ions in fractional coordinates (direct lattice) 
   0.50000000  0.00000000  0.72573602
   0.00000000  0.50000000  0.27426400
   0.00000000  0.00000000  0.00000000
   0.50000000  0.50000000  0.50000000
 
 position of ions in cartesian coordinates  (Angst):
   2.15007043  0.00000000  4.46027279
   0.00000000  2.15007043  1.68558848
   0.00000000  0.00000000  0.00000000
   2.15007043  2.15007043  3.07293057
 
 Euler angles ALPHA=     0.0000000  BETA=     0.0000000

 transformation matrix from SAXIS to cartesian coordinates
 ---------------------------------------------------------
     1.0000000 m_x     0.0000000 m_y     0.0000000 m_z
     0.0000000 m_x     1.0000000 m_y     0.0000000 m_z
     0.0000000 m_x     0.0000000 m_y     1.0000000 m_z

 transformation matrix from cartesian coordinates to SAXIS
 ---------------------------------------------------------
     1.0000000 m_x     0.0000000 m_y     0.0000000 m_z
     0.0000000 m_x     1.0000000 m_y     0.0000000 m_z
     0.0000000 m_x     0.0000000 m_y     1.0000000 m_z




--------------------------------------------------------------------------------------------------------


 k-point  1 :   0.5000 0.5000 0.0000  plane waves:    5760
 k-point  2 :   0.4928 0.4928 0.0000  plane waves:    5740
 k-point  3 :   0.4855 0.4855 0.0000  plane waves:    5740
 k-point  4 :   0.4783 0.4783 0.0000  plane waves:    5736
 k-point  5 :   0.4710 0.4710 0.0000  plane waves:    5736
 k-point  6 :   0.4638 0.4638 0.0000  plane waves:    5736
 k-point  7 :   0.4565 0.4565 0.0000  plane waves:    5744
 k-point  8 :   0.4493 0.4493 0.0000  plane waves:    5750
 k-point  9 :   0.4420 0.4420 0.0000  plane waves:    5754
 k-point 10 :   0.4348 0.4348 0.0000  plane waves:    5754
 k-point 11 :   0.4275 0.4275 0.0000  plane waves:    5778
 k-point 12 :   0.4203 0.4203 0.0000  plane waves:    5770
 k-point 13 :   0.4130 0.4130 0.0000  plane waves:    5770
 k-point 14 :   0.4058 0.4058 0.0000  plane waves:    5762
 k-point 15 :   0.3986 0.3986 0.0000  plane waves:    5754
 k-point 16 :   0.3913 0.3913 0.0000  plane waves:    5758
 k-point 17 :   0.3841 0.3841 0.0000  plane waves:    5750
 k-point 18 :   0.3768 0.3768 0.0000  plane waves:    5766
 k-point 19 :   0.3696 0.3696 0.0000  plane waves:    5750
 k-point 20 :   0.3623 0.3623 0.0000  plane waves:    5750
 k-point 21 :   0.3551 0.3551 0.0000  plane waves:    5750
 k-point 22 :   0.3478 0.3478 0.0000  plane waves:    5774
 k-point 23 :   0.3406 0.3406 0.0000  plane waves:    5762
 k-point 24 :   0.3333 0.3333 0.0000  plane waves:    5766
 k-point 25 :   0.3261 0.3261 0.0000  plane waves:    5778
 k-point 26 :   0.3188 0.3188 0.0000  plane waves:    5778
 k-point 27 :   0.3116 0.3116 0.0000  plane waves:    5774
 k-point 28 :   0.3043 0.3043 0.0000  plane waves:    5774
 k-point 29 :   0.2971 0.2971 0.0000  plane waves:    5770
 k-point 30 :   0.2899 0.2899 0.0000  plane waves:    5770
 k-point 31 :   0.2826 0.2826 0.0000  plane waves:    5778
 k-point 32 :   0.2754 0.2754 0.0000  plane waves:    5778
 k-point 33 :   0.2681 0.2681 0.0000  plane waves:    5778
 k-point 34 :   0.2609 0.2609 0.0000  plane waves:    5774
 k-point 35 :   0.2536 0.2536 0.0000  plane waves:    5766
 k-point 36 :   0.2464 0.2464 0.0000  plane waves:    5766
 k-point 37 :   0.2391 0.2391 0.0000  plane waves:    5766
 k-point 38 :   0.2319 0.2319 0.0000  plane waves:    5766
 k-point 39 :   0.2246 0.2246 0.0000  plane waves:    5766
 k-point 40 :   0.2174 0.2174 0.0000  plane waves:    5774
 k-point 41 :   0.2101 0.2101 0.0000  plane waves:    5774
 k-point 42 :   0.2029 0.2029 0.0000  plane waves:    5766
 k-point 43 :   0.1957 0.1957 0.0000  plane waves:    5758
 k-point 44 :   0.1884 0.1884 0.0000  plane waves:    5750
 k-point 45 :   0.1812 0.1812 0.0000  plane waves:    5734
 k-point 46 :   0.1739 0.1739 0.0000  plane waves:    5754
 k-point 47 :   0.1667 0.1667 0.0000  plane waves:    5758
 k-point 48 :   0.1594 0.1594 0.0000  plane waves:    5742
 k-point 49 :   0.1522 0.1522 0.0000  plane waves:    5750
 k-point 50 :   0.1449 0.1449 0.0000  plane waves:    5766
 k-point 51 :   0.1377 0.1377 0.0000  plane waves:    5758
 k-point 52 :   0.1304 0.1304 0.0000  plane waves:    5758
 k-point 53 :   0.1232 0.1232 0.0000  plane waves:    5758
 k-point 54 :   0.1159 0.1159 0.0000  plane waves:    5754
 k-point 55 :   0.1087 0.1087 0.0000  plane waves:    5754
 k-point 56 :   0.1014 0.1014 0.0000  plane waves:    5754
 k-point 57 :   0.0942 0.0942 0.0000  plane waves:    5754
 k-point 58 :   0.0870 0.0870 0.0000  plane waves:    5754
 k-point 59 :   0.0797 0.0797 0.0000  plane waves:    5770
 k-point 60 :   0.0725 0.0725 0.0000  plane waves:    5778
 k-point 61 :   0.0652 0.0652 0.0000  plane waves:    5770
 k-point 62 :   0.0580 0.0580 0.0000  plane waves:    5762
 k-point 63 :   0.0507 0.0507 0.0000  plane waves:    5766
 k-point 64 :   0.0435 0.0435 0.0000  plane waves:    5750
 k-point 65 :   0.0362 0.0362 0.0000  plane waves:    5746
 k-point 66 :   0.0290 0.0290 0.0000  plane waves:    5762
 k-point 67 :   0.0217 0.0217 0.0000  plane waves:    5762
 k-point 68 :   0.0145 0.0145 0.0000  plane waves:    5774
 k-point 69 :   0.0072 0.0072 0.0000  plane waves:    5766
 k-point 70 :   0.0000 0.0000 0.0000  plane waves:    5758
 k-point 71 :   0.0000 0.0000 0.0000  plane waves:    5758
 k-point 72 :   0.0000 0.0000 0.0072  plane waves:    5758
 k-point 73 :   0.0000 0.0000 0.0145  plane waves:    5758
 k-point 74 :   0.0000 0.0000 0.0217  plane waves:    5750
 k-point 75 :   0.0000 0.0000 0.0290  plane waves:    5766
 k-point 76 :   0.0000 0.0000 0.0362  plane waves:    5766
 k-point 77 :   0.0000 0.0000 0.0435  plane waves:    5766
 k-point 78 :   0.0000 0.0000 0.0507  plane waves:    5774
 k-point 79 :   0.0000 0.0000 0.0580  plane waves:    5774
 k-point 80 :   0.0000 0.0000 0.0652  plane waves:    5774
 k-point 81 :   0.0000 0.0000 0.0725  plane waves:    5758
 k-point 82 :   0.0000 0.0000 0.0797  plane waves:    5758
 k-point 83 :   0.0000 0.0000 0.0870  plane waves:    5758
 k-point 84 :   0.0000 0.0000 0.0942  plane waves:    5758
 k-point 85 :   0.0000 0.0000 0.1014  plane waves:    5758
 k-point 86 :   0.0000 0.0000 0.1087  plane waves:    5758
 k-point 87 :   0.0000 0.0000 0.1159  plane waves:    5750
 k-point 88 :   0.0000 0.0000 0.1232  plane waves:    5750
 k-point 89 :   0.0000 0.0000 0.1304  plane waves:    5750
 k-point 90 :   0.0000 0.0000 0.1377  plane waves:    5750
 k-point 91 :   0.0000 0.0000 0.1449  plane waves:    5734
 k-point 92 :   0.0000 0.0000 0.1522  plane waves:    5734
 k-point 93 :   0.0000 0.0000 0.1594  plane waves:    5718
 k-point 94 :   0.0000 0.0000 0.1667  plane waves:    5750
 k-point 95 :   0.0000 0.0000 0.1739  plane waves:    5750
 k-point 96 :   0.0000 0.0000 0.1812  plane waves:    5750
 k-point 97 :   0.0000 0.0000 0.1884  plane waves:    5750
 k-point 98 :   0.0000 0.0000 0.1957  plane waves:    5750
 k-point 99 :   0.0000 0.0000 0.2029  plane waves:    5766
 k-point ** :   0.0000 0.0000 0.2101  plane waves:    5748
 k-point ** :   0.0000 0.0000 0.2174  plane waves:    5740
 k-point ** :   0.0000 0.0000 0.2246  plane waves:    5740
 k-point ** :   0.0000 0.0000 0.2319  plane waves:    5740
 k-point ** :   0.0000 0.0000 0.2391  plane waves:    5740
 k-point ** :   0.0000 0.0000 0.2464  plane waves:    5748
 k-point ** :   0.0000 0.0000 0.2536  plane waves:    5732
 k-point ** :   0.0000 0.0000 0.2609  plane waves:    5748
 k-point ** :   0.0000 0.0000 0.2681  plane waves:    5748
 k-point ** :   0.0000 0.0000 0.2754  plane waves:    5748
 k-point ** :   0.0000 0.0000 0.2826  plane waves:    5748
 k-point ** :   0.0000 0.0000 0.2899  plane waves:    5748
 k-point ** :   0.0000 0.0000 0.2971  plane waves:    5748
 k-point ** :   0.0000 0.0000 0.3043  plane waves:    5748
 k-point ** :   0.0000 0.0000 0.3116  plane waves:    5748
 k-point ** :   0.0000 0.0000 0.3188  plane waves:    5748
 k-point ** :   0.0000 0.0000 0.3261  plane waves:    5748
 k-point ** :   0.0000 0.0000 0.3333  plane waves:    5748
 k-point ** :   0.0000 0.0000 0.3406  plane waves:    5764
 k-point ** :   0.0000 0.0000 0.3478  plane waves:    5764
 k-point ** :   0.0000 0.0000 0.3551  plane waves:    5756
 k-point ** :   0.0000 0.0000 0.3623  plane waves:    5756
 k-point ** :   0.0000 0.0000 0.3696  plane waves:    5788
 k-point ** :   0.0000 0.0000 0.3768  plane waves:    5788
 k-point ** :   0.0000 0.0000 0.3841  plane waves:    5804
 k-point ** :   0.0000 0.0000 0.3913  plane waves:    5804
 k-point ** :   0.0000 0.0000 0.3986  plane waves:    5788
 k-point ** :   0.0000 0.0000 0.4058  plane waves:    5788
 k-point ** :   0.0000 0.0000 0.4130  plane waves:    5788
 k-point ** :   0.0000 0.0000 0.4203  plane waves:    5788
 k-point ** :   0.0000 0.0000 0.4275  plane waves:    5780
 k-point ** :   0.0000 0.0000 0.4348  plane waves:    5780
 k-point ** :   0.0000 0.0000 0.4420  plane waves:    5780
 k-point ** :   0.0000 0.0000 0.4493  plane waves:    5780
 k-point ** :   0.0000 0.0000 0.4565  plane waves:    5772
 k-point ** :   0.0000 0.0000 0.4638  plane waves:    5772
 k-point ** :   0.0000 0.0000 0.4710  plane waves:    5772
 k-point ** :   0.0000 0.0000 0.4783  plane waves:    5772
 k-point ** :   0.0000 0.0000 0.4855  plane waves:    5772
 k-point ** :   0.0000 0.0000 0.4928  plane waves:    5772
 k-point ** :   0.0000 0.0000 0.5000  plane waves:    5772
 k-point ** :   0.0000 0.0000 0.5000  plane waves:    5772
 k-point ** :   0.0000 0.0072 0.5000  plane waves:    5780
 k-point ** :   0.0000 0.0145 0.5000  plane waves:    5780
 k-point ** :   0.0000 0.0217 0.5000  plane waves:    5788
 k-point ** :   0.0000 0.0290 0.5000  plane waves:    5788
 k-point ** :   0.0000 0.0362 0.5000  plane waves:    5764
 k-point ** :   0.0000 0.0435 0.5000  plane waves:    5772
 k-point ** :   0.0000 0.0507 0.5000  plane waves:    5764
 k-point ** :   0.0000 0.0580 0.5000  plane waves:    5780
 k-point ** :   0.0000 0.0652 0.5000  plane waves:    5780
 k-point ** :   0.0000 0.0725 0.5000  plane waves:    5772
 k-point ** :   0.0000 0.0797 0.5000  plane waves:    5772
 k-point ** :   0.0000 0.0870 0.5000  plane waves:    5772
 k-point ** :   0.0000 0.0942 0.5000  plane waves:    5772
 k-point ** :   0.0000 0.1014 0.5000  plane waves:    5772
 k-point ** :   0.0000 0.1087 0.5000  plane waves:    5776
 k-point ** :   0.0000 0.1159 0.5000  plane waves:    5768
 k-point ** :   0.0000 0.1232 0.5000  plane waves:    5776
 k-point ** :   0.0000 0.1304 0.5000  plane waves:    5776
 k-point ** :   0.0000 0.1377 0.5000  plane waves:    5760
 k-point ** :   0.0000 0.1449 0.5000  plane waves:    5760
 k-point ** :   0.0000 0.1522 0.5000  plane waves:    5760
 k-point ** :   0.0000 0.1594 0.5000  plane waves:    5748
 k-point ** :   0.0000 0.1667 0.5000  plane waves:    5748
 k-point ** :   0.0000 0.1739 0.5000  plane waves:    5748
 k-point ** :   0.0000 0.1812 0.5000  plane waves:    5732
 k-point ** :   0.0000 0.1884 0.5000  plane waves:    5732
 k-point ** :   0.0000 0.1957 0.5000  plane waves:    5732
 k-point ** :   0.0000 0.2029 0.5000  plane waves:    5732
 k-point ** :   0.0000 0.2101 0.5000  plane waves:    5732
 k-point ** :   0.0000 0.2174 0.5000  plane waves:    5732
 k-point ** :   0.0000 0.2246 0.5000  plane waves:    5740
 k-point ** :   0.0000 0.2319 0.5000  plane waves:    5752
 k-point ** :   0.0000 0.2391 0.5000  plane waves:    5736
 k-point ** :   0.0000 0.2464 0.5000  plane waves:    5744
 k-point ** :   0.0000 0.2536 0.5000  plane waves:    5744
 k-point ** :   0.0000 0.2609 0.5000  plane waves:    5744
 k-point ** :   0.0000 0.2681 0.5000  plane waves:    5764
 k-point ** :   0.0000 0.2754 0.5000  plane waves:    5764
 k-point ** :   0.0000 0.2826 0.5000  plane waves:    5756
 k-point ** :   0.0000 0.2899 0.5000  plane waves:    5756
 k-point ** :   0.0000 0.2971 0.5000  plane waves:    5764
 k-point ** :   0.0000 0.3043 0.5000  plane waves:    5772
 k-point ** :   0.0000 0.3116 0.5000  plane waves:    5764
 k-point ** :   0.0000 0.3188 0.5000  plane waves:    5764
 k-point ** :   0.0000 0.3261 0.5000  plane waves:    5764
 k-point ** :   0.0000 0.3333 0.5000  plane waves:    5764
 k-point ** :   0.0000 0.3406 0.5000  plane waves:    5772
 k-point ** :   0.0000 0.3478 0.5000  plane waves:    5780
 k-point ** :   0.0000 0.3551 0.5000  plane waves:    5788
 k-point ** :   0.0000 0.3623 0.5000  plane waves:    5800
 k-point ** :   0.0000 0.3696 0.5000  plane waves:    5800
 k-point ** :   0.0000 0.3768 0.5000  plane waves:    5784
 k-point ** :   0.0000 0.3841 0.5000  plane waves:    5776
 k-point ** :   0.0000 0.3913 0.5000  plane waves:    5772
 k-point ** :   0.0000 0.3986 0.5000  plane waves:    5772
 k-point ** :   0.0000 0.4058 0.5000  plane waves:    5780
 k-point ** :   0.0000 0.4130 0.5000  plane waves:    5772
 k-point ** :   0.0000 0.4203 0.5000  plane waves:    5772
 k-point ** :   0.0000 0.4275 0.5000  plane waves:    5788
 k-point ** :   0.0000 0.4348 0.5000  plane waves:    5788
 k-point ** :   0.0000 0.4420 0.5000  plane waves:    5788
 k-point ** :   0.0000 0.4493 0.5000  plane waves:    5784
 k-point ** :   0.0000 0.4565 0.5000  plane waves:    5800
 k-point ** :   0.0000 0.4638 0.5000  plane waves:    5808
 k-point ** :   0.0000 0.4710 0.5000  plane waves:    5808
 k-point ** :   0.0000 0.4783 0.5000  plane waves:    5816
 k-point ** :   0.0000 0.4855 0.5000  plane waves:    5824
 k-point ** :   0.0000 0.4928 0.5000  plane waves:    5848
 k-point ** :   0.0000 0.5000 0.5000  plane waves:    5848

 maximum and minimum number of plane-waves per node :       760      682

 maximum number of plane-waves:      5848
 maximum index in each direction: 
   IXMAX=    7   IYMAX=    7   IZMAX=   11
   IXMIN=   -8   IYMIN=   -8   IZMIN=  -11


 parallel 3D FFT for wavefunctions:
    minimum data exchange during FFTs selected (reduces bandwidth)
 parallel 3D FFT for charge:
    minimum data exchange during FFTs selected (reduces bandwidth)


 total amount of memory used by VASP MPI-rank0    91904. kBytes
=======================================================================

   base      :      30000. kBytes
   nonl-proj :      33408. kBytes
   fftplans  :       1036. kBytes
   grid      :       3932. kBytes
   one-center:         62. kBytes
   wavefun   :      23466. kBytes
 
     INWAV:  cpu time   72.3271: real time  140.6082
 Broyden mixing: mesh for mixing (old mesh)
   NGX = 15   NGY = 15   NGZ = 23
  (NGX  = 64   NGY  = 64   NGZ  = 96)
  gives a total of   5175 points

 initial charge density was supplied:
 charge density of overlapping atoms calculated
 number of electron      26.0000000 magnetization       0.0000000      0.0000000      0.0000000
 keeping initial charge density in first step


--------------------------------------------------------------------------------------------------------


 Maximum index for augmentation-charges         1186 (set IRDMAX)


--------------------------------------------------------------------------------------------------------


 First call to EWALD:  gamma=   0.366
 Maximum number of real-space cells 3x 3x 2
 Maximum number of reciprocal cells 2x 2x 3

    FEWALD:  cpu time    0.0218: real time    0.0426


--------------------------------------- Iteration      1(   1)  ---------------------------------------


    POTLOK:  cpu time    0.1975: real time    0.6557
    SETDIJ:  cpu time    0.0550: real time    0.1044
     EDDAV:  cpu time  402.5942: real time  799.8415
       DOS:  cpu time    0.0048: real time    0.0048
    CHARGE:  cpu time    3.0371: real time    5.7364
    MIXING:  cpu time    0.0522: real time    0.0987
    --------------------------------------------
      LOOP:  cpu time  405.9409: real time  806.4417

 eigenvalue-minimisations  : 22144
 total energy-change (2. order) :-0.2093790E+01  (-0.5156178E+02)
 number of electron      26.0000009 magnetization      -0.0000000     -0.0000000     -0.0000000
 augmentation part        4.3577477 magnetization      -0.0000000     -0.0000000     -0.0000000

 Broyden mixing:
  rms(total) = 0.10192E+01    rms(broyden)= 0.10192E+01
  rms(prec ) = 0.11561E+01
  weight for this iteration     100.00

 Free energy of the ion-electron system (eV)
  ---------------------------------------------------
  alpha Z        PSCENC =        64.20128509
  Ewald energy   TEWEN  =     -1439.91766544
  -Hartree energ DENC   =      -749.41397116
  -exchange      EXHF   =         0.00000000
  -V(xc)+E(xc)   XCENC  =        -1.78998093
  PAW double counting   =      1946.54768464    -1848.13466328
  entropy T*S    EENTRO =        -0.00193931
  eigenvalues    EBANDS =      -220.70776070
  atomic energy  EATOM  =      2247.12322143
  Solvation  Ediel_sol  =         0.00000000
  ---------------------------------------------------
  free energy    TOTEN  =        -2.09378966 eV

  energy without entropy =       -2.09185035  energy(sigma->0) =       -2.09282001


--------------------------------------------------------------------------------------------------------




--------------------------------------- Iteration      1(   2)  ---------------------------------------


    POTLOK:  cpu time    0.2690: real time    0.6370
    SETDIJ:  cpu time    0.0462: real time    0.0958
     EDDAV:  cpu time  356.1500: real time  664.7343
       DOS:  cpu time    0.0047: real time    0.0047
    CHARGE:  cpu time    3.2700: real time    4.3136
    MIXING:  cpu time    0.0542: real time    0.1130
    --------------------------------------------
      LOOP:  cpu time  359.7941: real time  669.8984

 eigenvalue-minimisations  : 17264
 total energy-change (2. order) :-0.8632882E+01  (-0.8710380E+01)
 number of electron      26.0000008 magnetization      -0.0000000     -0.0000000     -0.0000000
 augmentation part        3.9159854 magnetization      -0.0000000     -0.0000000     -0.0000000

 Broyden mixing:
  rms(total) = 0.28978E+00    rms(broyden)= 0.28976E+00
  rms(prec ) = 0.45185E+00
  weight for this iteration     100.00

 eigenvalues of (default mixing * dielectric matrix)
  average eigenvalue GAMMA=   0.9360
  0.9360

 Free energy of the ion-electron system (eV)
  ---------------------------------------------------
  alpha Z        PSCENC =        64.20128509
  Ewald energy   TEWEN  =     -1439.91766544
  -Hartree energ DENC   =      -757.36183636
  -exchange      EXHF   =         0.00000000
  -V(xc)+E(xc)   XCENC  =        -1.13393041
  PAW double counting   =      2240.24867889    -2143.40592152
  entropy T*S    EENTRO =        -0.00237553
  eigenvalues    EBANDS =      -220.47812788
  atomic energy  EATOM  =      2247.12322143
  Solvation  Ediel_sol  =         0.00000000
  ---------------------------------------------------
  free energy    TOTEN  =       -10.72667175 eV

  energy without entropy =      -10.72429621  energy(sigma->0) =      -10.72548398


--------------------------------------------------------------------------------------------------------




--------------------------------------- Iteration      1(   3)  ---------------------------------------


    POTLOK:  cpu time    0.1953: real time    0.6468
    SETDIJ:  cpu time    0.0486: real time    0.0953
     EDDAV:  cpu time  379.2691: real time  728.2802
       DOS:  cpu time    0.0046: real time    0.0047
    CHARGE:  cpu time    3.6346: real time    5.3598
    MIXING:  cpu time    0.0509: real time    0.0994
    --------------------------------------------
      LOOP:  cpu time  383.2031: real time  734.4861

 eigenvalue-minimisations  : 19968
 total energy-change (2. order) :-0.2192138E+00  (-0.3171893E+00)
 number of electron      26.0000008 magnetization       0.0000000     -0.0000000     -0.0000000
 augmentation part        3.8478699 magnetization       0.0000000     -0.0000000     -0.0000000

 Broyden mixing:
  rms(total) = 0.19282E+00    rms(broyden)= 0.19282E+00
  rms(prec ) = 0.29166E+00
  weight for this iteration     100.00

 eigenvalues of (default mixing * dielectric matrix)
  average eigenvalue GAMMA=   1.3094
  1.3094  1.3094

 Free energy of the ion-electron system (eV)
  ---------------------------------------------------
  alpha Z        PSCENC =        64.20128509
  Ewald energy   TEWEN  =     -1439.91766544
  -Hartree energ DENC   =      -755.57842991
  -exchange      EXHF   =         0.00000000
  -V(xc)+E(xc)   XCENC  =        -1.05743987
  PAW double counting   =      2342.03847645    -2246.61454526
  entropy T*S    EENTRO =        -0.00324269
  eigenvalues    EBANDS =      -221.13754531
  atomic energy  EATOM  =      2247.12322143
  Solvation  Ediel_sol  =         0.00000000
  ---------------------------------------------------
  free energy    TOTEN  =       -10.94588551 eV

  energy without entropy =      -10.94264282  energy(sigma->0) =      -10.94426417


--------------------------------------------------------------------------------------------------------




--------------------------------------- Iteration      1(   4)  ---------------------------------------


    POTLOK:  cpu time    0.2399: real time    0.7183
    SETDIJ:  cpu time    0.0594: real time    0.1191
     EDDAV:  cpu time  445.7299: real time  762.8536
       DOS:  cpu time    0.0047: real time    0.0047
    CHARGE:  cpu time    5.1647: real time    8.6771
    MIXING:  cpu time    0.1031: real time    0.1032
    --------------------------------------------
      LOOP:  cpu time  451.3017: real time  772.4762

 eigenvalue-minimisations  : 20284
 total energy-change (2. order) : 0.1949340E-01  (-0.2198629E-01)
 number of electron      26.0000008 magnetization      -0.0000000     -0.0000000      0.0000000
 augmentation part        3.8556080 magnetization       0.0000000     -0.0000000      0.0000000

 Broyden mixing:
  rms(total) = 0.56534E-01    rms(broyden)= 0.56534E-01
  rms(prec ) = 0.90854E-01
  weight for this iteration     100.00

 eigenvalues of (default mixing * dielectric matrix)
  average eigenvalue GAMMA=   1.2806
  1.9739  1.1363  0.7316

 Free energy of the ion-electron system (eV)
  ---------------------------------------------------
  alpha Z        PSCENC =        64.20128509
  Ewald energy   TEWEN  =     -1439.91766544
  -Hartree energ DENC   =      -756.74047001
  -exchange      EXHF   =         0.00000000
  -V(xc)+E(xc)   XCENC  =        -0.91817833
  PAW double counting   =      2399.51496776    -2305.97298240
  entropy T*S    EENTRO =        -0.00321892
  eigenvalues    EBANDS =      -218.21335128
  atomic energy  EATOM  =      2247.12322143
  Solvation  Ediel_sol  =         0.00000000
  ---------------------------------------------------
  free energy    TOTEN  =       -10.92639211 eV

  energy without entropy =      -10.92317319  energy(sigma->0) =      -10.92478265


--------------------------------------------------------------------------------------------------------




--------------------------------------- Iteration      1(   5)  ---------------------------------------


    POTLOK:  cpu time    0.2797: real time    0.6837
    SETDIJ:  cpu time    0.0563: real time    0.1146
     EDDAV:  cpu time  387.3420: real time  725.5646
       DOS:  cpu time    0.0580: real time    0.1109
    CHARGE:  cpu time    2.2103: real time    4.2611
    MIXING:  cpu time    0.0581: real time    0.1089
    --------------------------------------------
      LOOP:  cpu time  390.0044: real time  730.8437

 eigenvalue-minimisations  : 20180
 total energy-change (2. order) :-0.4363221E-02  (-0.1685196E-02)
 number of electron      26.0000008 magnetization      -0.0000000      0.0000000      0.0000000
 augmentation part        3.8622519 magnetization      -0.0000000      0.0000000      0.0000000

 Broyden mixing:
  rms(total) = 0.26486E-01    rms(broyden)= 0.26486E-01
  rms(prec ) = 0.34637E-01
  weight for this iteration     100.00

 eigenvalues of (default mixing * dielectric matrix)
  average eigenvalue GAMMA=   1.2845
  2.3648  1.0655  1.0655  0.6423

 Free energy of the ion-electron system (eV)
  ---------------------------------------------------
  alpha Z        PSCENC =        64.20128509
  Ewald energy   TEWEN  =     -1439.91766544
  -Hartree energ DENC   =      -757.61929052
  -exchange      EXHF   =         0.00000000
  -V(xc)+E(xc)   XCENC  =        -0.81871852
  PAW double counting   =      2423.64984304    -2330.69163561
  entropy T*S    EENTRO =        -0.00321562
  eigenvalues    EBANDS =      -216.85457917
  atomic energy  EATOM  =      2247.12322143
  Solvation  Ediel_sol  =         0.00000000
  ---------------------------------------------------
  free energy    TOTEN  =       -10.93075533 eV

  energy without entropy =      -10.92753970  energy(sigma->0) =      -10.92914752


--------------------------------------------------------------------------------------------------------




--------------------------------------- Iteration      1(   6)  ---------------------------------------


    POTLOK:  cpu time    0.2663: real time    0.7688
    SETDIJ:  cpu time    0.0568: real time    0.1079
     EDDAV:  cpu time  390.9835: real time  720.3195
       DOS:  cpu time    0.0046: real time    0.0046
    CHARGE:  cpu time    1.7189: real time    3.0248
    MIXING:  cpu time    0.0705: real time    0.1320
    --------------------------------------------
      LOOP:  cpu time  393.1005: real time  724.3576

 eigenvalue-minimisations  : 19684
 total energy-change (2. order) :-0.1364107E-02  (-0.8399546E-04)
 number of electron      26.0000008 magnetization      -0.0000000     -0.0000000     -0.0000000
 augmentation part        3.8624986 magnetization      -0.0000000     -0.0000000     -0.0000000

 Broyden mixing:
  rms(total) = 0.13908E-01    rms(broyden)= 0.13908E-01
  rms(prec ) = 0.20061E-01
  weight for this iteration     100.00

 eigenvalues of (default mixing * dielectric matrix)
  average eigenvalue GAMMA=   1.4602
  2.5871  1.9565  1.0655  1.0655  0.6263

 Free energy of the ion-electron system (eV)
  ---------------------------------------------------
  alpha Z        PSCENC =        64.20128509
  Ewald energy   TEWEN  =     -1439.91766544
  -Hartree energ DENC   =      -757.88242739
  -exchange      EXHF   =         0.00000000
  -V(xc)+E(xc)   XCENC  =        -0.79249016
  PAW double counting   =      2424.94140542    -2331.93524357
  entropy T*S    EENTRO =        -0.00322473
  eigenvalues    EBANDS =      -216.66698009
  atomic energy  EATOM  =      2247.12322143
  Solvation  Ediel_sol  =         0.00000000
  ---------------------------------------------------
  free energy    TOTEN  =       -10.93211943 eV

  energy without entropy =      -10.92889471  energy(sigma->0) =      -10.93050707


--------------------------------------------------------------------------------------------------------




--------------------------------------- Iteration      1(   7)  ---------------------------------------


    POTLOK:  cpu time    0.1904: real time    0.7459
    SETDIJ:  cpu time    0.0510: real time    0.1136
     EDDAV:  cpu time  352.6180: real time  680.2802
       DOS:  cpu time    0.0045: real time    0.0045
    CHARGE:  cpu time    2.4126: real time    4.8372
    MIXING:  cpu time    0.0723: real time    0.1403
    --------------------------------------------
      LOOP:  cpu time  355.3489: real time  686.1217

 eigenvalue-minimisations  : 17024
 total energy-change (2. order) :-0.1111425E-02  (-0.1291910E-03)
 number of electron      26.0000008 magnetization      -0.0000000      0.0000000     -0.0000000
 augmentation part        3.8625998 magnetization       0.0000000      0.0000000     -0.0000000

 Broyden mixing:
  rms(total) = 0.25465E-02    rms(broyden)= 0.25465E-02
  rms(prec ) = 0.45131E-02
  weight for this iteration     100.00

 eigenvalues of (default mixing * dielectric matrix)
  average eigenvalue GAMMA=   1.4628
  2.8241  2.0760  1.1462  1.1462  0.9597  0.6248

 Free energy of the ion-electron system (eV)
  ---------------------------------------------------
  alpha Z        PSCENC =        64.20128509
  Ewald energy   TEWEN  =     -1439.91766544
  -Hartree energ DENC   =      -758.30117191
  -exchange      EXHF   =         0.00000000
  -V(xc)+E(xc)   XCENC  =        -0.75722405
  PAW double counting   =      2423.21267596    -2330.05000544
  entropy T*S    EENTRO =        -0.00323866
  eigenvalues    EBANDS =      -216.44110782
  atomic energy  EATOM  =      2247.12322143
  Solvation  Ediel_sol  =         0.00000000
  ---------------------------------------------------
  free energy    TOTEN  =       -10.93323086 eV

  energy without entropy =      -10.92999220  energy(sigma->0) =      -10.93161153


--------------------------------------------------------------------------------------------------------




--------------------------------------- Iteration      1(   8)  ---------------------------------------


    POTLOK:  cpu time    0.2175: real time    0.6773
    SETDIJ:  cpu time    0.0305: real time    0.0849
     EDDAV:  cpu time  367.5811: real time  710.8055
       DOS:  cpu time    0.0043: real time    0.0043
    CHARGE:  cpu time    3.8371: real time    7.6752
    MIXING:  cpu time    0.0650: real time    0.1306
    --------------------------------------------
      LOOP:  cpu time  371.7355: real time  719.3777

 eigenvalue-minimisations  : 18676
 total energy-change (2. order) :-0.1216267E-03  (-0.1224659E-04)
 number of electron      26.0000008 magnetization      -0.0000000      0.0000000      0.0000000
 augmentation part        3.8624236 magnetization      -0.0000000      0.0000000      0.0000000

 Broyden mixing:
  rms(total) = 0.12206E-02    rms(broyden)= 0.12206E-02
  rms(prec ) = 0.20179E-02
  weight for this iteration     100.00

 eigenvalues of (default mixing * dielectric matrix)
  average eigenvalue GAMMA=   1.4636
  2.9336  2.0543  1.6215  1.1494  0.9937  0.8680  0.6243

 Free energy of the ion-electron system (eV)
  ---------------------------------------------------
  alpha Z        PSCENC =        64.20128509
  Ewald energy   TEWEN  =     -1439.91766544
  -Hartree energ DENC   =      -758.41923461
  -exchange      EXHF   =         0.00000000
  -V(xc)+E(xc)   XCENC  =        -0.75119282
  PAW double counting   =      2421.87557453    -2328.69637759
  entropy T*S    EENTRO =        -0.00324088
  eigenvalues    EBANDS =      -216.34572219
  atomic energy  EATOM  =      2247.12322143
  Solvation  Ediel_sol  =         0.00000000
  ---------------------------------------------------
  free energy    TOTEN  =       -10.93335249 eV

  energy without entropy =      -10.93011161  energy(sigma->0) =      -10.93173205


--------------------------------------------------------------------------------------------------------




--------------------------------------- Iteration      1(   9)  ---------------------------------------


    POTLOK:  cpu time    0.1829: real time    0.7629
    SETDIJ:  cpu time    0.0409: real time    0.1215
     EDDAV:  cpu time  317.0979: real time  617.9370
       DOS:  cpu time    0.0046: real time    0.0046
    CHARGE:  cpu time    1.8166: real time    3.6498
    MIXING:  cpu time    0.0755: real time    0.1446
    --------------------------------------------
      LOOP:  cpu time  319.2184: real time  622.6204

 eigenvalue-minimisations  : 15964
 total energy-change (2. order) :-0.2722634E-04  (-0.3615360E-05)
 number of electron      26.0000008 magnetization       0.0000000     -0.0000000      0.0000000
 augmentation part        3.8626503 magnetization       0.0000000     -0.0000000      0.0000000

 Broyden mixing:
  rms(total) = 0.49765E-03    rms(broyden)= 0.49765E-03
[...]
 pseudopotential strength for first ion, spin component:           3
  0.000  -0.000   0.000  -0.000   0.000  -0.000   0.000   0.000  -0.000   0.000   0.000  -0.000   0.000   0.000  -0.000   0.000
  0.000  -0.000   0.000  -0.000   0.000  -0.000   0.000   0.000  -0.000   0.000   0.000  -0.000   0.000   0.000  -0.000   0.000
  0.000  -0.000   0.000  -0.000   0.000  -0.000  -0.000  -0.038   0.000   0.000   0.000  -0.000  -0.000  -0.072   0.000   0.000
  0.000   0.000   0.000   0.000  -0.000   0.038   0.000  -0.000   0.038   0.000  -0.000   0.072   0.000  -0.000   0.072   0.000
 -0.000   0.000  -0.000   0.000   0.000   0.000  -0.038   0.000   0.000  -0.000   0.000   0.000  -0.072   0.000   0.000  -0.000
  0.000  -0.000   0.000  -0.000   0.000  -0.000  -0.000  -0.072   0.000   0.000   0.000  -0.000  -0.000  -0.138   0.000   0.000
  0.000   0.000   0.000   0.000  -0.000   0.072   0.000  -0.000   0.072   0.000  -0.000   0.138   0.000  -0.000   0.138   0.000
 -0.000   0.000  -0.000   0.000   0.000   0.000  -0.072   0.000   0.000  -0.000   0.000   0.000  -0.138   0.000   0.000  -0.000
  0.000   0.000   0.000   0.000  -0.000   0.000  -0.000   0.000   0.000   0.000  -0.000   0.000  -0.000   0.000   0.000   0.000
 -0.000  -0.000  -0.000  -0.000   0.000   0.000   0.000  -0.000  -0.000   0.000   0.000   0.000   0.000  -0.000  -0.000   0.000
  0.000  -0.000   0.000  -0.000  -0.000  -0.000  -0.000   0.000   0.000  -0.000  -0.000  -0.000  -0.000   0.000   0.000  -0.000
  0.000   0.000   0.000   0.000  -0.000   0.000   0.000   0.000   0.000   0.000  -0.000   0.000   0.000   0.000   0.000   0.000
  0.000   0.000   0.000   0.000  -0.000   0.000   0.000  -0.000  -0.000   0.000  -0.000   0.000   0.000  -0.000  -0.000   0.000
 pseudopotential strength for first ion, spin component:           4
  5.634   0.000   6.737   0.000  -0.000   0.000   0.004   0.000  -0.000   0.000  -0.000   0.000   0.006   0.000  -0.000   0.000
  6.737   0.000   8.047   0.000  -0.000   0.000   0.004   0.000   0.000   0.000  -0.000   0.000   0.008   0.000  -0.000   0.000
 -0.000   0.000  -0.000   0.000   1.268   0.000  -0.000   0.000   0.000  -0.038   2.116   0.000  -0.000   0.000   0.000  -0.072
  0.004   0.000   0.004   0.000  -0.000   0.000   1.275   0.000   0.000   0.000  -0.000   0.000   2.128   0.000   0.000   0.000
 -0.000   0.000   0.000   0.000   0.000   0.038   0.000   0.000   1.271   0.000   0.000   0.072   0.000   0.000   2.122   0.000
 -0.000   0.000  -0.000   0.000   2.116   0.000  -0.000   0.000   0.000  -0.072   3.548   0.000  -0.000   0.000   0.000  -0.138
  0.006   0.000   0.008   0.000  -0.000   0.000   2.128   0.000   0.000   0.000  -0.000   0.000   3.569   0.000   0.000   0.000
 -0.000   0.000  -0.000   0.000   0.000   0.072   0.000   0.000   2.122   0.000   0.000   0.138   0.000   0.000   3.557   0.000
  0.000   0.000   0.000   0.000   0.000   0.000   0.000   0.000  -0.000   0.000  -0.000   0.000   0.000   0.000  -0.000   0.000
 -0.000   0.000  -0.000   0.000   0.000   0.000  -0.000   0.000   0.000   0.000   0.001   0.000  -0.000   0.000   0.000   0.000
  0.010   0.000   0.012   0.000   0.000   0.000   0.002   0.000   0.000   0.000   0.000   0.000   0.004   0.000   0.000   0.000
  0.000   0.000   0.000   0.000   0.000   0.000   0.000   0.000   0.004   0.000   0.000   0.000  -0.000   0.000   0.007   0.000
  0.005   0.000   0.006   0.000   0.000   0.000   0.002   0.000  -0.000   0.000   0.000   0.000   0.003   0.000   0.000   0.000
 total augmentation occupancy for first ion, spin component:           1
  4.296  -1.765   0.000   0.049   0.000   0.000  -0.013   0.000   0.000   0.000  -0.035   0.000  -0.030
 -1.765   1.066   0.000  -0.009   0.000   0.000   0.006   0.000   0.000   0.000   0.006   0.000   0.025
  0.000   0.000   2.213   0.000   0.000  -0.433   0.000   0.000   0.000  -0.237  -0.000   0.000   0.000
  0.049  -0.009   0.000   1.559   0.000   0.000  -0.354   0.000   0.000   0.000   0.030   0.000   0.203
  0.000   0.000   0.000   0.000   1.865   0.000   0.000  -0.341  -0.000   0.000   0.000   0.202   0.000
  0.000   0.000  -0.433   0.000   0.000   0.090   0.000   0.000   0.000   0.047  -0.000   0.000   0.000
 -0.013   0.006   0.000  -0.354   0.000   0.000   0.090   0.000   0.000  -0.000  -0.006  -0.000  -0.046
  0.000   0.000   0.000   0.000  -0.341   0.000   0.000   0.071   0.000   0.000   0.000  -0.036   0.000
  0.000   0.000   0.000   0.000  -0.000   0.000   0.000   0.000   0.004   0.000   0.000   0.000   0.000
  0.000   0.000  -0.237   0.000   0.000   0.047  -0.000   0.000   0.000   0.048   0.000   0.000   0.000
 -0.035   0.006  -0.000   0.030   0.000  -0.000  -0.006   0.000   0.000   0.000   0.008   0.000   0.006
  0.000   0.000   0.000   0.000   0.202   0.000  -0.000  -0.036   0.000   0.000   0.000   0.043   0.000
 -0.030   0.025   0.000   0.203   0.000   0.000  -0.046   0.000   0.000   0.000   0.006   0.000   0.045
 total augmentation occupancy for first ion, spin component:           2
  0.000  -0.000   0.000   0.000   0.000  -0.000  -0.000   0.000   0.000   0.000   0.000  -0.000   0.000
  0.000   0.000  -0.000   0.000   0.000   0.000   0.000   0.000   0.000   0.000  -0.000   0.000   0.000
  0.000  -0.000   0.000   0.000   0.000   0.000   0.000   0.000   0.000   0.000  -0.000   0.000  -0.000
  0.000   0.000   0.000   0.000   0.000   0.000  -0.000   0.000   0.000  -0.000   0.000   0.000   0.000
  0.000   0.000  -0.000   0.000  -0.000   0.000  -0.000   0.000   0.000   0.000   0.000  -0.000   0.000
 -0.000   0.000   0.000   0.000   0.000   0.000  -0.000   0.000   0.000   0.000   0.000   0.000   0.000
  0.000   0.000   0.000   0.000   0.000  -0.000   0.000   0.000   0.000   0.000   0.000  -0.000   0.000
  0.000   0.000   0.000   0.000   0.000   0.000   0.000   0.000  -0.000   0.000   0.000   0.000   0.000
  0.000   0.000   0.000  -0.000   0.000   0.000   0.000  -0.000   0.000   0.000   0.000   0.000   0.000
  0.000   0.000   0.000  -0.000   0.000   0.000   0.000   0.000   0.000   0.000   0.000  -0.000  -0.000
  0.000   0.000  -0.000   0.000   0.000   0.000   0.000   0.000  -0.000   0.000   0.000   0.000   0.000
 -0.000   0.000   0.000   0.000   0.000   0.000  -0.000   0.000   0.000  -0.000   0.000   0.000   0.000
  0.000   0.000  -0.000   0.000   0.000   0.000   0.000  -0.000   0.000  -0.000   0.000   0.000   0.000
 total augmentation occupancy for first ion, spin component:           3
 -0.000   0.000   0.000   0.000   0.000   0.000   0.000  -0.000   0.000   0.000  -0.000  -0.000   0.000
  0.000   0.000   0.000   0.000  -0.000  -0.000   0.000   0.000   0.000   0.000   0.000  -0.000  -0.000
  0.000   0.000   0.000   0.000   0.000   0.000  -0.000   0.000  -0.000  -0.000   0.000  -0.000   0.000
  0.000   0.000   0.000  -0.000  -0.000   0.000   0.000  -0.000   0.000   0.000  -0.000   0.000   0.000
  0.000  -0.000   0.000  -0.000   0.000   0.000  -0.000  -0.000  -0.000  -0.000  -0.000   0.000   0.000
  0.000  -0.000   0.000   0.000   0.000   0.000  -0.000   0.000   0.000   0.000   0.000   0.000   0.000
  0.000   0.000  -0.000  -0.000  -0.000   0.000   0.000   0.000   0.000  -0.000   0.000  -0.000   0.000
 -0.000   0.000   0.000  -0.000   0.000   0.000   0.000   0.000   0.000   0.000   0.000   0.000  -0.000
  0.000   0.000  -0.000   0.000  -0.000   0.000   0.000   0.000   0.000   0.000   0.000   0.000   0.000
 -0.000  -0.000   0.000   0.000   0.000   0.000  -0.000   0.000   0.000   0.000   0.000   0.000   0.000
  0.000   0.000   0.000   0.000  -0.000   0.000   0.000   0.000   0.000   0.000   0.000   0.000   0.000
 -0.000  -0.000   0.000   0.000   0.000   0.000  -0.000   0.000   0.000   0.000   0.000  -0.000   0.000
  0.000  -0.000   0.000   0.000   0.000   0.000   0.000  -0.000   0.000   0.000  -0.000   0.000   0.000
 total augmentation occupancy for first ion, spin component:           4
  0.000   0.000   0.000   0.000   0.000   0.000   0.000  -0.000  -0.000   0.000   0.000   0.000   0.000
  0.000   0.000   0.000   0.000  -0.000   0.000   0.000  -0.000  -0.000   0.000   0.000   0.000   0.000
  0.000   0.000   0.000   0.000  -0.000   0.000   0.000   0.000   0.000  -0.000   0.000  -0.000   0.000
  0.000   0.000  -0.000   0.000   0.000   0.000  -0.000   0.000  -0.000   0.000   0.000   0.000   0.000
  0.000   0.000  -0.000   0.000  -0.000   0.000  -0.000   0.000  -0.000   0.000   0.000   0.000  -0.000
  0.000   0.000   0.000   0.000   0.000   0.000   0.000  -0.000   0.000   0.000   0.000   0.000   0.000
  0.000   0.000   0.000  -0.000   0.000   0.000   0.000  -0.000   0.000  -0.000   0.000   0.000   0.000
  0.000  -0.000   0.000   0.000   0.000  -0.000   0.000   0.000   0.000  -0.000   0.000   0.000   0.000
 -0.000  -0.000   0.000  -0.000  -0.000   0.000   0.000   0.000   0.000   0.000   0.000  -0.000  -0.000
  0.000   0.000  -0.000   0.000   0.000   0.000   0.000  -0.000   0.000   0.000  -0.000   0.000   0.000
  0.000   0.000   0.000   0.000   0.000   0.000   0.000   0.000   0.000  -0.000   0.000   0.000   0.000
  0.000  -0.000  -0.000   0.000   0.000   0.000   0.000   0.000  -0.000   0.000   0.000   0.000   0.000
  0.000   0.000   0.000   0.000   0.000  -0.000   0.000   0.000  -0.000   0.000   0.000   0.000   0.000


------------------------ aborting loop because EDIFF is reached ----------------------------------------


    CHARGE:  cpu time    5.5636: real time   12.6021
    FORLOC:  cpu time    0.0051: real time    0.0106
    FORNL :  cpu time   27.4771: real time   55.0033
    STRESS:  cpu time   59.4283: real time  118.9478
    FORCOR:  cpu time    0.1479: real time    0.3792
    FORHAR:  cpu time    0.0257: real time    0.0798
    MIXING:  cpu time    0.1072: real time    0.2600
    OFIELD:  cpu time    0.0001: real time    0.0001

  FORCE on cell =-STRESS in cart. coord.  units (eV):
  Direction    XX          YY          ZZ          XY          YZ          ZX
  --------------------------------------------------------------------------------------
  Alpha Z    64.20129    64.20129    64.20129
  Ewald    -439.74121  -439.74123  -560.43629     0.00000     0.00000    -0.00000
  Hartree   292.10645   292.10646   174.24105    -0.00000    -0.00000    -0.00000
  E(xc)    -113.81887  -113.81887  -113.12318    -0.00000     0.00000     0.00000
  Local    -328.07508  -328.07507   -78.01561    -0.00000     0.00000     0.00000
  n-local   162.14125   160.23544   155.21263    -0.99183     0.00001    -0.00000
  augment   137.59482   137.59482   139.68191    -0.00000    -0.00000    -0.00000
  Kinetic   239.80316   231.14149   222.49687    -2.19137    -0.00001     0.00000
  Fock        0.00000     0.00000     0.00000     0.00000     0.00000     0.00000
  -------------------------------------------------------------------------------------
  Total       8.92806     8.92806     4.25868     0.00000     0.00000    -0.00000
  in kB     125.86925   125.86925    60.03952     0.00000     0.00000    -0.00000
  external pressure =      103.93 kB  Pullay stress =        0.00 kB


 VOLUME and BASIS-vectors are now :
 -----------------------------------------------------------------------------
  energy-cutoff  :      500.00
  volume of cell :      113.64
      direct lattice vectors                 reciprocal lattice vectors
     4.300140858  0.000000000  0.000000000     0.232550522  0.000000000  0.000000000
     0.000000000  4.300140858  0.000000000     0.000000000  0.232550522  0.000000000
     0.000000000  0.000000000  6.145861149     0.000000000  0.000000000  0.162711128

  length of vectors
     4.300140858  4.300140858  6.145861149     0.232550522  0.232550522  0.162711128


 FORCES acting on ions
    electron-ion (+dipol)            ewald-force                    non-local-force                 convergence-correction
 -----------------------------------------------------------------------------------------------
   -.180E-14 -.588E-14 0.471E+02   0.261E-14 -.178E-15 -.473E+02   0.000E+00 0.000E+00 -.224E+00   0.566E-14 -.233E-15 0.699E-03
   -.629E-14 0.551E-14 -.471E+02   -.168E-14 -.547E-14 0.473E+02   0.827E-24 0.352E-23 0.224E+00   0.135E-14 0.211E-15 -.699E-03
   -.255E-13 -.568E-14 0.759E-06   -.341E-14 0.631E-14 0.425E-05   0.000E+00 0.000E+00 0.000E+00   -.555E-13 0.410E-14 -.532E-07
   0.106E-13 0.667E-13 0.965E-07   0.139E-14 0.780E-16 0.515E-06   0.000E+00 -.662E-23 0.000E+00   0.130E-14 0.762E-15 0.150E-07
 -----------------------------------------------------------------------------------------------
   -.230E-13 0.606E-13 0.352E-06   -.109E-14 0.740E-15 -.355E-14   0.827E-24 -.310E-23 0.278E-16   -.472E-13 0.484E-14 -.359E-07
 
 
 POSITION                                       TOTAL-FORCE (eV/Angst)
 -----------------------------------------------------------------------------------
      2.15007      0.00000      4.46027         0.000000      0.000000     -0.465000
      0.00000      2.15007      1.68559         0.000000      0.000000      0.465000
      0.00000      0.00000      0.00000        -0.000000      0.000000      0.000000
      2.15007      2.15007      3.07293         0.000000     -0.000000      0.000000
 -----------------------------------------------------------------------------------
    total drift:                               -0.000000      0.000000      0.000000


--------------------------------------------------------------------------------------------------------



  FREE ENERGIE OF THE ION-ELECTRON SYSTEM (eV)
  ---------------------------------------------------
  free  energy   TOTEN  =       -10.93338304 eV

  energy  without entropy=      -10.93014159  energy(sigma->0) =      -10.93176231
 


--------------------------------------------------------------------------------------------------------


    POTLOK:  cpu time    0.2241: real time    0.4503


--------------------------------------------------------------------------------------------------------


     LOOP+:  cpu time 3807.2983: real time 7213.5216
    4ORBIT:  cpu time    0.0000: real time    0.0000

 Spin-Orbit-Coupling matrix elements

 Ion:    1  E_soc:     -0.0102547
 l=   1
     0.0000000    -0.0011360    -0.0028628
    -0.0011360     0.0000000    -0.0013152
    -0.0028628    -0.0013152     0.0000000
 l=   2
     0.0000000     0.0000006     0.0000000     0.0000006     0.0000045
     0.0000006     0.0000000    -0.0000213     0.0000700     0.0000373
     0.0000000    -0.0000213     0.0000000     0.0000397     0.0000000
     0.0000006     0.0000700     0.0000397     0.0000000     0.0000552
     0.0000045     0.0000373     0.0000000     0.0000552     0.0000000
 l=   3
     0.0000000     0.0000000     0.0000000     0.0000000     0.0000000     0.0000000     0.0000000
     0.0000000     0.0000000     0.0000000     0.0000000     0.0000000     0.0000000     0.0000000
     0.0000000     0.0000000     0.0000000     0.0000000     0.0000000     0.0000000     0.0000000
     0.0000000     0.0000000     0.0000000     0.0000000     0.0000000     0.0000000     0.0000000
     0.0000000     0.0000000     0.0000000     0.0000000     0.0000000     0.0000000     0.0000000
     0.0000000     0.0000000     0.0000000     0.0000000     0.0000000     0.0000000     0.0000000
     0.0000000     0.0000000     0.0000000     0.0000000     0.0000000     0.0000000     0.0000000

 Ion:    2  E_soc:     -0.0102547
 l=   1
     0.0000000    -0.0013152    -0.0028628
    -0.0013152     0.0000000    -0.0011360
    -0.0028628    -0.0011360     0.0000000
 l=   2
     0.0000000     0.0000006     0.0000000     0.0000006     0.0000045
     0.0000006     0.0000000     0.0000397     0.0000700     0.0000552
     0.0000000     0.0000397     0.0000000    -0.0000213     0.0000000
     0.0000006     0.0000700    -0.0000213     0.0000000     0.0000373
     0.0000045     0.0000552     0.0000000     0.0000373     0.0000000
 l=   3
     0.0000000     0.0000000     0.0000000     0.0000000     0.0000000     0.0000000     0.0000000
     0.0000000     0.0000000     0.0000000     0.0000000     0.0000000     0.0000000     0.0000000
     0.0000000     0.0000000     0.0000000     0.0000000     0.0000000     0.0000000     0.0000000
     0.0000000     0.0000000     0.0000000     0.0000000     0.0000000     0.0000000     0.0000000
     0.0000000     0.0000000     0.0000000     0.0000000     0.0000000     0.0000000     0.0000000
     0.0000000     0.0000000     0.0000000     0.0000000     0.0000000     0.0000000     0.0000000
     0.0000000     0.0000000     0.0000000     0.0000000     0.0000000     0.0000000     0.0000000

 Ion:    3  E_soc:     -1.8466995
 l=   1
     0.0000000    -0.2335173    -0.2532839
    -0.2335173     0.0000000    -0.2335173
    -0.2532839    -0.2335173     0.0000000
 l=   2
     0.0000000    -0.0133754     0.0000000    -0.0133754    -0.0539789
    -0.0133754     0.0000000    -0.0403687    -0.0136762    -0.0139441
     0.0000000    -0.0403687     0.0000000    -0.0403687     0.0000000
    -0.0133754    -0.0136762    -0.0403687     0.0000000    -0.0139441
    -0.0539789    -0.0139441     0.0000000    -0.0139441     0.0000000
 l=   3
     0.0000000     0.0000000     0.0000000     0.0000000     0.0000000     0.0000000     0.0000000
     0.0000000     0.0000000     0.0000000     0.0000000     0.0000000     0.0000000     0.0000000
     0.0000000     0.0000000     0.0000000     0.0000000     0.0000000     0.0000000     0.0000000
     0.0000000     0.0000000     0.0000000     0.0000000     0.0000000     0.0000000     0.0000000
     0.0000000     0.0000000     0.0000000     0.0000000     0.0000000     0.0000000     0.0000000
     0.0000000     0.0000000     0.0000000     0.0000000     0.0000000     0.0000000     0.0000000
     0.0000000     0.0000000     0.0000000     0.0000000     0.0000000     0.0000000     0.0000000

 Ion:    4  E_soc:     -0.0412256
 l=   1
     0.0000000    -0.0062612    -0.0081044
    -0.0062612     0.0000000    -0.0062612
    -0.0081044    -0.0062612     0.0000000
 l=   2
     0.0000000     0.0000001     0.0000000     0.0000001    -0.0000081
     0.0000001     0.0000000    -0.0000085     0.0000323     0.0000034
     0.0000000    -0.0000085     0.0000000    -0.0000085     0.0000000
     0.0000001     0.0000323    -0.0000085     0.0000000     0.0000034
    -0.0000081     0.0000034     0.0000000     0.0000034     0.0000000
 l=   3
     0.0000000     0.0000000     0.0000000     0.0000000     0.0000000     0.0000000     0.0000000
     0.0000000     0.0000000     0.0000000     0.0000000     0.0000000     0.0000000     0.0000000
     0.0000000     0.0000000     0.0000000     0.0000000     0.0000000     0.0000000     0.0000000
     0.0000000     0.0000000     0.0000000     0.0000000     0.0000000     0.0000000     0.0000000
     0.0000000     0.0000000     0.0000000     0.0000000     0.0000000     0.0000000     0.0000000
     0.0000000     0.0000000     0.0000000     0.0000000     0.0000000     0.0000000     0.0000000
     0.0000000     0.0000000     0.0000000     0.0000000     0.0000000     0.0000000     0.0000000

 total amount of memory used by VASP MPI-rank0    91904. kBytes
=======================================================================

   base      :      30000. kBytes
   nonl-proj :      33408. kBytes
   fftplans  :       1036. kBytes
   grid      :       3932. kBytes
   one-center:         62. kBytes
   wavefun   :      23466. kBytes
 
  
  
 General timing and accounting informations for this job:
 ========================================================
  
                  Total CPU time used (sec):     3894.969
                            User time (sec):     3884.906
                          System time (sec):       10.062
                         Elapsed time (sec):     7385.990
  
                   Maximum memory used (kb):      157400.
                   Average memory used (kb):           0.
  
                          Minor page faults:        69196
                          Major page faults:            0
                 Voluntary context switches:          790
