 running on   32 total cores
 distrk:  each k-point on   32 cores,    1 groups
 distr:  one band on    8 cores,    4 groups
 using from now: INCAR     
 vasp.5.4.4.18Apr17-6-g9f103f2a35 (build Dec 22 2021 20:15:33) complex          
  
 POSCAR found type information on POSCAR  Ga Bi As
 POSCAR found :  3 types and       4 ions
 scaLAPACK will be used
 LDA part: xc-table for Pade appr. of Perdew
 found WAVECAR, reading the header
  number of bands has changed, file:    48 present:    36
  trying to continue reading WAVECAR, but it might fail
  number of k-points has changed, file:   245 present:   210
  trying to continue reading WAVECAR, but it might fail
 POSCAR, INCAR and KPOINTS ok, starting setup
 FFT: planning ...
 reading WAVECAR
 the WAVECAR file was read successfully
 entering main loop
       N       E                     dE             d eps       ncg     rms          rms(c)
DAV:   1    -0.209378965913E+01   -0.20938E+01   -0.51562E+02 22144   0.165E+02    0.102E+01
DAV:   2    -0.107266717471E+02   -0.86329E+01   -0.87104E+01 17264   0.633E+01    0.290E+00
DAV:   3    -0.109458855091E+02   -0.21921E+00   -0.31719E+00 19968   0.130E+01    0.193E+00
DAV:   4    -0.109263921074E+02    0.19493E-01   -0.21986E-01 20284   0.376E+00    0.565E-01
DAV:   5    -0.109307553282E+02   -0.43632E-02   -0.16852E-02 20180   0.106E+00    0.265E-01
DAV:   6    -0.109321194350E+02   -0.13641E-02   -0.83995E-04 19684   0.214E-01    0.139E-01
DAV:   7    -0.109332308603E+02   -0.11114E-02   -0.12919E-03 17024   0.273E-01    0.255E-02
DAV:   8    -0.109333524870E+02   -0.12163E-03   -0.12247E-04 18676   0.861E-02    0.122E-02
DAV:   9    -0.109333797133E+02   -0.27226E-04   -0.36154E-05 15964   0.338E-02    0.498E-03
DAV:  10    -0.109333830393E+02   -0.33260E-05   -0.38217E-06 12640   0.173E-02
   1 F= -.10933383E+02 E0= -.10931762E+02  d E =-.324145E-02  mag=    -0.0000     0.0000    -0.0000
