   4   4   0   0
  0.2841110E+02  0.4300141E-09  0.4300141E-09  0.6145861E-09  0.5000000E-15
  1.000000000000000E-004
  CAR 
 Ga2BiAs                                 
     15.52552314    -22.90581358  301      3.23150693      1.00000000
    -22.906  0.0000E+00  0.0000E+00
    -22.778  0.0000E+00  0.0000E+00
    -22.650  0.0000E+00  0.0000E+00
    -22.522 -0.2061E-26 -0.2641E-27
    -22.393 -0.4049E-22 -0.5187E-23
    -22.265 -0.3479E-18 -0.4457E-19
    -22.137 -0.1305E-14 -0.1673E-15
    -22.009 -0.2067E-11 -0.2649E-12
    -21.881 -0.1456E-08 -0.1868E-09
    -21.753 -0.4418E-06 -0.5679E-07
    -21.625 -0.5717E-04 -0.7381E-05
    -21.497 -0.3091E-02 -0.4034E-03
    -21.369 -0.6672E-01 -0.8951E-02
    -21.240 -0.5000E+00 -0.7301E-01
    -21.112 -0.3833E+00 -0.1221E+00
    -20.984  0.6370E+01  0.6939E+00
    -20.856  0.1571E+02  0.2707E+01
    -20.728  0.1017E+02  0.4010E+01
    -20.600  0.7921E+00  0.4111E+01
    -20.472 -0.7115E+00  0.4020E+01
    -20.344 -0.1479E+00  0.4001E+01
    -20.216 -0.9484E-02  0.4000E+01
    -20.088 -0.2359E-03  0.4000E+01
    -19.959 -0.2426E-05  0.4000E+01
    -19.831 -0.1058E-07  0.4000E+01
    -19.703 -0.1984E-10  0.4000E+01
    -19.575 -0.1780E-13  0.4000E+01
    -19.447 -0.3637E-22  0.4000E+01
    -19.319 -0.3197E-18  0.4000E+01
    -19.191 -0.1232E-14  0.4000E+01
    -19.063 -0.2010E-11  0.4000E+01
    -18.935 -0.1465E-08  0.4000E+01
    -18.806 -0.4620E-06  0.4000E+01
    -18.678 -0.6246E-04  0.4000E+01
    -18.550 -0.3552E-02  0.4000E+01
    -18.422 -0.8142E-01  0.3989E+01
    -18.294 -0.6638E+00  0.3904E+01
    -18.166 -0.7842E+00  0.3804E+01
    -18.038  0.8172E+01  0.4850E+01
    -17.910  0.2293E+02  0.7787E+01
    -17.782  0.1671E+02  0.9928E+01
    -17.654  0.1973E+01  0.1018E+02
    -17.525 -0.1116E+01  0.1004E+02
    -17.397 -0.2722E+00  0.1000E+02
    -17.269 -0.1949E-01  0.1000E+02
    -17.141 -0.5385E-03  0.1000E+02
    -17.013 -0.6154E-05  0.1000E+02
    -16.885 -0.2991E-07  0.1000E+02
    -16.757 -0.6265E-10  0.1000E+02
    -16.629 -0.5949E-13  0.1000E+02
    -16.501  0.0000E+00  0.1000E+02
    -16.372  0.0000E+00  0.1000E+02
    -16.244  0.0000E+00  0.1000E+02
    -16.116  0.0000E+00  0.1000E+02
    -15.988  0.0000E+00  0.1000E+02
    -15.860  0.0000E+00  0.1000E+02
    -15.732  0.0000E+00  0.1000E+02
    -15.604  0.0000E+00  0.1000E+02
    -15.476  0.0000E+00  0.1000E+02
    -15.348  0.0000E+00  0.1000E+02
    -15.220  0.0000E+00  0.1000E+02
    -15.091  0.0000E+00  0.1000E+02
    -14.963  0.0000E+00  0.1000E+02
    -14.835  0.0000E+00  0.1000E+02
    -14.707  0.0000E+00  0.1000E+02
    -14.579  0.0000E+00  0.1000E+02
    -14.451  0.0000E+00  0.1000E+02
    -14.323  0.0000E+00  0.1000E+02
    -14.195  0.0000E+00  0.1000E+02
    -14.067  0.0000E+00  0.1000E+02
    -13.939  0.0000E+00  0.1000E+02
    -13.810  0.0000E+00  0.1000E+02
    -13.682  0.0000E+00  0.1000E+02
    -13.554  0.0000E+00  0.1000E+02
    -13.426  0.0000E+00  0.1000E+02
    -13.298  0.0000E+00  0.1000E+02
    -13.170  0.0000E+00  0.1000E+02
    -13.042  0.0000E+00  0.1000E+02
    -12.914  0.0000E+00  0.1000E+02
    -12.786  0.0000E+00  0.1000E+02
    -12.657  0.0000E+00  0.1000E+02
    -12.529  0.0000E+00  0.1000E+02
    -12.401  0.0000E+00  0.1000E+02
    -12.273  0.0000E+00  0.1000E+02
    -12.145  0.0000E+00  0.1000E+02
    -12.017  0.0000E+00  0.1000E+02
    -11.889  0.0000E+00  0.1000E+02
    -11.761  0.0000E+00  0.1000E+02
    -11.633  0.0000E+00  0.1000E+02
    -11.505  0.0000E+00  0.1000E+02
    -11.376  0.0000E+00  0.1000E+02
    -11.248  0.0000E+00  0.1000E+02
    -11.120  0.0000E+00  0.1000E+02
    -10.992  0.0000E+00  0.1000E+02
    -10.864 -0.4146E-32  0.1000E+02
    -10.736 -0.1541E-27  0.1000E+02
    -10.608 -0.2505E-23  0.1000E+02
    -10.480 -0.1779E-19  0.1000E+02
    -10.352 -0.5508E-16  0.1000E+02
    -10.223 -0.7170E-13  0.1000E+02
    -10.095 -0.4149E-10  0.1000E+02
     -9.967 -0.1031E-07  0.1000E+02
     -9.839 -0.1088E-05  0.1000E+02
     -9.711 -0.4759E-04  0.1000E+02
     -9.583 -0.8211E-03  0.1000E+02
     -9.455 -0.4829E-02  0.9999E+01
     -9.327 -0.3199E-02  0.9999E+01
     -9.199  0.3454E-01  0.1000E+02
     -9.071  0.1231E+00  0.1002E+02
     -8.942  0.3621E+00  0.1007E+02
     -8.814  0.6954E+00  0.1015E+02
     -8.686  0.1100E+01  0.1030E+02
     -8.558  0.1346E+01  0.1047E+02
     -8.430  0.1206E+01  0.1062E+02
     -8.302  0.1119E+01  0.1077E+02
     -8.174  0.1545E+01  0.1096E+02
     -8.046  0.2593E+01  0.1130E+02
     -7.918  0.3163E+01  0.1170E+02
     -7.789  0.3303E+01  0.1212E+02
     -7.661  0.4156E+01  0.1266E+02
     -7.533  0.4270E+01  0.1320E+02
     -7.405  0.3095E+01  0.1360E+02
     -7.277  0.2278E+01  0.1389E+02
     -7.149  0.9564E+00  0.1401E+02
     -7.021 -0.1559E-01  0.1401E+02
     -6.893 -0.8352E-01  0.1400E+02
     -6.765 -0.1419E-01  0.1400E+02
     -6.637 -0.8244E-03  0.1400E+02
     -6.508 -0.1922E-04  0.1400E+02
     -6.380 -0.1887E-06  0.1400E+02
     -6.252 -0.7963E-09  0.1400E+02
     -6.124 -0.1458E-11  0.1400E+02
     -5.996 -0.1109E-14  0.1400E+02
     -5.868  0.0000E+00  0.1400E+02
     -5.740  0.0000E+00  0.1400E+02
     -5.612  0.0000E+00  0.1400E+02
     -5.484  0.0000E+00  0.1400E+02
     -5.356  0.0000E+00  0.1400E+02
     -5.227 -0.1194E-29  0.1400E+02
     -5.099 -0.3157E-25  0.1400E+02
     -4.971 -0.3659E-21  0.1400E+02
     -4.843 -0.1862E-17  0.1400E+02
     -4.715 -0.4042E-14  0.1400E+02
     -4.587 -0.3925E-11  0.1400E+02
     -4.459 -0.1671E-08  0.1400E+02
     -4.331 -0.3105E-06  0.1400E+02
     -4.203 -0.2504E-04  0.1400E+02
     -4.074 -0.8629E-03  0.1400E+02
     -3.946 -0.1218E-01  0.1400E+02
     -3.818 -0.6082E-01  0.1399E+02
     -3.690 -0.1460E-01  0.1399E+02
     -3.562  0.6083E+00  0.1407E+02
     -3.434  0.1985E+01  0.1432E+02
     -3.306  0.3801E+01  0.1481E+02
     -3.178  0.4492E+01  0.1538E+02
     -3.050  0.2942E+01  0.1576E+02
     -2.922  0.1389E+01  0.1594E+02
     -2.793  0.2096E+01  0.1621E+02
     -2.665  0.3274E+01  0.1663E+02
     -2.537  0.2130E+01  0.1690E+02
     -2.409  0.6321E+00  0.1698E+02
     -2.281  0.6258E+00  0.1706E+02
     -2.153  0.6985E+00  0.1715E+02
     -2.025  0.3658E+00  0.1720E+02
     -1.897  0.3884E+00  0.1725E+02
     -1.769  0.6667E+00  0.1733E+02
     -1.640  0.7942E+00  0.1743E+02
     -1.512  0.4226E+00  0.1749E+02
     -1.384  0.2955E+00  0.1753E+02
     -1.256  0.7177E+00  0.1762E+02
     -1.128  0.5951E+00  0.1769E+02
     -1.000  0.1641E+00  0.1771E+02
     -0.872  0.3090E+00  0.1775E+02
     -0.744  0.6718E+00  0.1784E+02
     -0.616  0.9602E+00  0.1796E+02
     -0.488  0.1468E+01  0.1815E+02
     -0.359  0.2088E+01  0.1842E+02
     -0.231  0.2189E+01  0.1870E+02
     -0.103  0.2453E+01  0.1901E+02
      0.025  0.2814E+01  0.1937E+02
      0.153  0.2266E+01  0.1966E+02
      0.281  0.2313E+01  0.1996E+02
      0.409  0.3164E+01  0.2037E+02
      0.537  0.3831E+01  0.2086E+02
      0.665  0.3916E+01  0.2136E+02
      0.794  0.3634E+01  0.2182E+02
      0.922  0.3271E+01  0.2224E+02
      1.050  0.2827E+01  0.2260E+02
      1.178  0.2539E+01  0.2293E+02
      1.306  0.2318E+01  0.2323E+02
      1.434  0.1538E+01  0.2342E+02
      1.562  0.1942E+01  0.2367E+02
      1.690  0.3363E+01  0.2410E+02
      1.818  0.3523E+01  0.2455E+02
      1.946  0.1826E+01  0.2479E+02
      2.075  0.8189E+00  0.2489E+02
      2.203  0.9627E+00  0.2502E+02
      2.331  0.8789E+00  0.2513E+02
      2.459  0.7274E+00  0.2522E+02
      2.587  0.1408E+01  0.2540E+02
      2.715  0.2121E+01  0.2567E+02
      2.843  0.1417E+01  0.2586E+02
      2.971  0.4150E+00  0.2591E+02
      3.099  0.2162E+00  0.2594E+02
      3.227  0.4690E+00  0.2600E+02
      3.356  0.9180E+00  0.2611E+02
      3.484  0.7051E+00  0.2621E+02
      3.612  0.1376E+00  0.2622E+02
      3.740  0.2048E+00  0.2625E+02
      3.868  0.9402E+00  0.2637E+02
      3.996  0.1440E+01  0.2655E+02
      4.124  0.1015E+01  0.2668E+02
      4.252  0.6959E+00  0.2677E+02
      4.380  0.1377E+01  0.2695E+02
      4.509  0.2233E+01  0.2724E+02
      4.637  0.3168E+01  0.2764E+02
      4.765  0.4346E+01  0.2820E+02
      4.893  0.4305E+01  0.2875E+02
      5.021  0.2962E+01  0.2913E+02
      5.149  0.1677E+01  0.2934E+02
      5.277  0.1524E+01  0.2954E+02
      5.405  0.2153E+01  0.2981E+02
      5.533  0.1692E+01  0.3003E+02
      5.661  0.5204E+00  0.3010E+02
      5.790  0.9249E+00  0.3022E+02
      5.918  0.2349E+01  0.3052E+02
      6.046  0.2801E+01  0.3088E+02
      6.174  0.1757E+01  0.3110E+02
      6.302  0.1069E+01  0.3124E+02
      6.430  0.1739E+01  0.3146E+02
      6.558  0.3970E+01  0.3197E+02
      6.686  0.4750E+01  0.3258E+02
      6.814  0.2652E+01  0.3292E+02
      6.943  0.2137E+01  0.3319E+02
      7.071  0.3785E+01  0.3368E+02
      7.199  0.3850E+01  0.3417E+02
      7.327  0.3113E+01  0.3457E+02
      7.455  0.2705E+01  0.3492E+02
      7.583  0.2057E+01  0.3518E+02
      7.711  0.2269E+01  0.3547E+02
      7.839  0.3059E+01  0.3586E+02
      7.967  0.3222E+01  0.3627E+02
      8.095  0.2560E+01  0.3660E+02
      8.224  0.1743E+01  0.3683E+02
      8.352  0.2105E+01  0.3709E+02
      8.480  0.3586E+01  0.3755E+02
      8.608  0.3762E+01  0.3804E+02
      8.736  0.2943E+01  0.3841E+02
      8.864  0.2428E+01  0.3872E+02
      8.992  0.1981E+01  0.3898E+02
      9.120  0.2078E+01  0.3924E+02
      9.248  0.2768E+01  0.3960E+02
      9.377  0.3325E+01  0.4002E+02
      9.505  0.2626E+01  0.4036E+02
      9.633  0.2243E+01  0.4065E+02
      9.761  0.2254E+01  0.4094E+02
      9.889  0.1624E+01  0.4115E+02
     10.017  0.1722E+01  0.4137E+02
     10.145  0.2460E+01  0.4168E+02
     10.273  0.3168E+01  0.4209E+02
     10.401  0.3532E+01  0.4254E+02
     10.529  0.3358E+01  0.4297E+02
     10.658  0.2821E+01  0.4333E+02
     10.786  0.1838E+01  0.4357E+02
     10.914  0.1608E+01  0.4377E+02
     11.042  0.2103E+01  0.4404E+02
     11.170  0.2196E+01  0.4432E+02
     11.298  0.2510E+01  0.4464E+02
     11.426  0.2370E+01  0.4495E+02
     11.554  0.2451E+01  0.4526E+02
     11.682  0.3017E+01  0.4565E+02
     11.810  0.3592E+01  0.4611E+02
     11.939  0.3260E+01  0.4653E+02
     12.067  0.2437E+01  0.4684E+02
     12.195  0.2191E+01  0.4712E+02
     12.323  0.1254E+01  0.4728E+02
     12.451  0.6601E+00  0.4736E+02
     12.579  0.9624E+00  0.4749E+02
     12.707  0.1068E+01  0.4762E+02
     12.835  0.8556E+00  0.4773E+02
     12.963  0.6080E+00  0.4781E+02
     13.092  0.3968E+00  0.4786E+02
     13.220  0.1981E+00  0.4789E+02
     13.348  0.1567E+00  0.4791E+02
     13.476  0.3277E+00  0.4795E+02
     13.604  0.3161E+00  0.4799E+02
     13.732  0.9316E-01  0.4800E+02
     13.860 -0.1171E-01  0.4800E+02
     13.988 -0.8482E-02  0.4800E+02
     14.116 -0.1085E-02  0.4800E+02
     14.244 -0.5063E-04  0.4800E+02
     14.373 -0.9590E-06  0.4800E+02
     14.501 -0.7637E-08  0.4800E+02
     14.629 -0.2599E-10  0.4800E+02
     14.757 -0.3816E-13  0.4800E+02
     14.885  0.0000E+00  0.4800E+02
     15.013  0.0000E+00  0.4800E+02
     15.141  0.0000E+00  0.4800E+02
     15.269  0.0000E+00  0.4800E+02
     15.397  0.0000E+00  0.4800E+02
     15.526  0.0000E+00  0.4800E+02
