    4    4    1    1
  0.2841110E+02  0.4300141E-09  0.4300141E-09  0.6145861E-09  0.5000000E-15
  1.000000000000000E-004
  CAR 
 Ga2BiAs                                 
     26     75     48
 
  0.0000000E+00  0.0000000E+00  0.0000000E+00  0.1333333E-01
    1      -20.903066   1.000000
    2      -20.903065   1.000000
    3      -20.897077   1.000000
    4      -20.897075   1.000000
    5      -17.958260   1.000000
    6      -17.958258   1.000000
    7      -17.941476   1.000000
    8      -17.941473   1.000000
    9      -17.929064   1.000000
   10      -17.929061   1.000000
   11       -9.144939   1.000000
   12       -9.144925   1.000000
   13       -7.390887   1.000000
   14       -7.390878   1.000000
   15       -3.556198   1.000000
   16       -3.556177   1.000000
   17        0.284385   1.000000
   18        0.284394   1.000000
   19        0.573717   1.000000
   20        0.573729   1.000000
   21        1.856988   1.000000
   22        1.857033   1.000000
   23        2.172807   1.000000
   24        2.172810   1.000000
   25        3.326714   0.143346
   26        3.326719   0.143332
   27        3.628528  -0.008386
   28        3.628528  -0.008386
   29        4.175635  -0.000000
   30        4.175671  -0.000000
   31        4.394191  -0.000000
   32        4.394238  -0.000000
   33        6.061674  -0.000000
   34        6.061689  -0.000000
   35        6.277467  -0.000000
   36        6.277485  -0.000000
   37        6.417233  -0.000000
   38        6.417248  -0.000000
   39        8.897530   0.000000
   40        8.897570   0.000000
   41       11.151235   0.000000
   42       11.151256   0.000000
   43       11.596541   0.000000
   44       11.596567   0.000000
   45       12.074841   0.000000
   46       12.074933   0.000000
   47       12.194896   0.000000
   48       12.196760   0.000000
 
  0.2000000E+00  0.0000000E+00  0.0000000E+00  0.1333333E-01
    1      -20.904145   1.000000
    2      -20.903100   1.000000
    3      -20.896938   1.000000
    4      -20.894641   1.000000
    5      -17.959813   1.000000
    6      -17.954240   1.000000
    7      -17.942365   1.000000
    8      -17.940796   1.000000
    9      -17.929357   1.000000
   10      -17.927891   1.000000
   11       -8.916338   1.000000
   12       -8.916152   1.000000
   13       -7.396379   1.000000
   14       -7.391366   1.000000
   15       -3.522027   1.000000
   16       -3.393619   1.000000
   17       -0.580191   1.000000
   18       -0.461608   1.000000
   19        0.024806   1.000000
   20        0.378960   1.000000
   21        0.671437   1.000000
   22        0.721082   1.000000
   23        1.744920   1.000000
   24        2.172129   1.000000
   25        2.958044   1.032898
   26        3.114667   0.912798
   27        3.859175  -0.000042
   28        3.906381  -0.000010
   29        4.648860  -0.000000
   30        4.783157  -0.000000
   31        5.964197  -0.000000
   32        5.986168  -0.000000
   33        6.272584  -0.000000
   34        6.313587  -0.000000
   35        6.433627  -0.000000
   36        6.481837  -0.000000
   37        7.446416  -0.000000
   38        7.700590  -0.000000
   39        9.694668   0.000000
   40        9.966272   0.000000
   41       10.168256   0.000000
   42       10.245822   0.000000
   43       10.331849   0.000000
   44       10.349193   0.000000
   45       11.034805   0.000000
   46       11.136075   0.000000
   47       11.247751   0.000000
   48       11.307889   0.000000
 
  0.4000000E+00  0.0000000E+00  0.0000000E+00  0.1333333E-01
    1      -20.904540   1.000000
    2      -20.903997   1.000000
    3      -20.894727   1.000000
    4      -20.893207   1.000000
    5      -17.957479   1.000000
    6      -17.954193   1.000000
    7      -17.943106   1.000000
    8      -17.942941   1.000000
    9      -17.925784   1.000000
   10      -17.925735   1.000000
   11       -8.319237   1.000000
   12       -8.318578   1.000000
   13       -7.648039   1.000000
   14       -7.644325   1.000000
   15       -3.178232   1.000000
   16       -3.012916   1.000000
   17       -1.984255   1.000000
   18       -1.896120   1.000000
   19       -0.685227   1.000000
   20       -0.190429   1.000000
   21        0.301364   1.000000
   22        0.758334   1.000000
   23        1.133072   1.000000
   24        1.146457   1.000000
   25        2.593440   1.000031
   26        2.646173   1.000140
   27        4.319046  -0.000000
   28        4.346908  -0.000000
   29        5.286324  -0.000000
   30        5.406042  -0.000000
   31        6.973432  -0.000000
   32        7.035343  -0.000000
   33        7.221719  -0.000000
   34        7.276187  -0.000000
   35        7.583548  -0.000000
   36        7.612235  -0.000000
   37        8.073856  -0.000000
   38        8.481095  -0.000000
   39        8.778182   0.000000
   40        8.782846   0.000000
   41        8.841651   0.000000
   42        8.953000   0.000000
   43       10.255702   0.000000
   44       10.316619   0.000000
   45       10.457570   0.000000
   46       10.501226   0.000000
   47       11.248391   0.000000
   48       11.292253   0.000000
 
 -0.4000000E+00  0.0000000E+00  0.0000000E+00  0.1333333E-01
    1      -20.904539   1.000000
    2      -20.903998   1.000000
    3      -20.894726   1.000000
    4      -20.893208   1.000000
    5      -17.957480   1.000000
    6      -17.954192   1.000000
    7      -17.943108   1.000000
    8      -17.942938   1.000000
    9      -17.925783   1.000000
   10      -17.925735   1.000000
   11       -8.319244   1.000000
   12       -8.318570   1.000000
   13       -7.648033   1.000000
   14       -7.644330   1.000000
   15       -3.178245   1.000000
   16       -3.012902   1.000000
   17       -1.984244   1.000000
   18       -1.896132   1.000000
   19       -0.685217   1.000000
   20       -0.190438   1.000000
   21        0.301355   1.000000
   22        0.758343   1.000000
   23        1.133081   1.000000
   24        1.146448   1.000000
   25        2.593441   1.000031
   26        2.646172   1.000140
   27        4.319068  -0.000000
   28        4.346884  -0.000000
   29        5.286338  -0.000000
   30        5.406030  -0.000000
   31        6.973441  -0.000000
   32        7.035329  -0.000000
   33        7.221735  -0.000000
   34        7.276174  -0.000000
   35        7.583573  -0.000000
   36        7.612212  -0.000000
   37        8.073846  -0.000000
   38        8.481091  -0.000000
   39        8.778192   0.000000
   40        8.782852   0.000000
   41        8.841674   0.000000
   42        8.952977   0.000000
   43       10.255721   0.000000
   44       10.316600   0.000000
   45       10.457576   0.000000
   46       10.501220   0.000000
   47       11.248387   0.000000
   48       11.292257   0.000000
 
 -0.2000000E+00  0.0000000E+00  0.0000000E+00  0.1333333E-01
    1      -20.904144   1.000000
    2      -20.903101   1.000000
    3      -20.896937   1.000000
    4      -20.894642   1.000000
    5      -17.959815   1.000000
    6      -17.954239   1.000000
    7      -17.942367   1.000000
    8      -17.940793   1.000000
    9      -17.929358   1.000000
   10      -17.927891   1.000000
   11       -8.916345   1.000000
   12       -8.916144   1.000000
   13       -7.396373   1.000000
   14       -7.391372   1.000000
   15       -3.522039   1.000000
   16       -3.393607   1.000000
   17       -0.580176   1.000000
   18       -0.461625   1.000000
   19        0.024814   1.000000
   20        0.378954   1.000000
   21        0.671444   1.000000
   22        0.721074   1.000000
   23        1.744914   1.000000
   24        2.172134   1.000000
   25        2.958050   1.032899
   26        3.114663   0.912807
   27        3.859193  -0.000042
   28        3.906360  -0.000010
   29        4.648877  -0.000000
   30        4.783143  -0.000000
   31        5.964174  -0.000000
   32        5.986190  -0.000000
   33        6.272598  -0.000000
   34        6.313571  -0.000000
   35        6.433642  -0.000000
   36        6.481825  -0.000000
   37        7.446405  -0.000000
   38        7.700601  -0.000000
   39        9.694654   0.000000
   40        9.966279   0.000000
   41       10.168250   0.000000
   42       10.245835   0.000000
   43       10.331832   0.000000
   44       10.349214   0.000000
   45       11.034809   0.000000
   46       11.136075   0.000000
   47       11.248193   0.000000
   48       11.307808   0.000000
 
  0.0000000E+00  0.2000000E+00  0.0000000E+00  0.1333333E-01
    1      -20.904145   1.000000
    2      -20.903100   1.000000
    3      -20.896938   1.000000
    4      -20.894641   1.000000
    5      -17.959813   1.000000
    6      -17.954240   1.000000
    7      -17.942365   1.000000
    8      -17.940796   1.000000
    9      -17.929357   1.000000
   10      -17.927891   1.000000
   11       -8.916338   1.000000
   12       -8.916152   1.000000
   13       -7.396379   1.000000
   14       -7.391366   1.000000
   15       -3.522027   1.000000
   16       -3.393619   1.000000
   17       -0.580191   1.000000
   18       -0.461608   1.000000
   19        0.024806   1.000000
   20        0.378960   1.000000
   21        0.671437   1.000000
   22        0.721082   1.000000
   23        1.744920   1.000000
   24        2.172129   1.000000
   25        2.958044   1.032898
   26        3.114667   0.912798
   27        3.859175  -0.000042
   28        3.906381  -0.000010
   29        4.648860  -0.000000
   30        4.783157  -0.000000
   31        5.964197  -0.000000
   32        5.986168  -0.000000
   33        6.272584  -0.000000
   34        6.313587  -0.000000
   35        6.433627  -0.000000
   36        6.481837  -0.000000
   37        7.446416  -0.000000
   38        7.700590  -0.000000
   39        9.694668   0.000000
   40        9.966272   0.000000
   41       10.168256   0.000000
   42       10.245822   0.000000
   43       10.331850   0.000000
   44       10.349193   0.000000
   45       11.034805   0.000000
   46       11.136074   0.000000
   47       11.247743   0.000000
   48       11.308120   0.000000
 
  0.2000000E+00  0.2000000E+00  0.0000000E+00  0.1333333E-01
    1      -20.904906   1.000000
    2      -20.903331   1.000000
    3      -20.896009   1.000000
    4      -20.893085   1.000000
    5      -17.960141   1.000000
    6      -17.952627   1.000000
    7      -17.942305   1.000000
    8      -17.939703   1.000000
    9      -17.929496   1.000000
   10      -17.926959   1.000000
   11       -8.692720   1.000000
   12       -8.692509   1.000000
   13       -7.361423   1.000000
   14       -7.354964   1.000000
   15       -3.506727   1.000000
   16       -3.340204   1.000000
   17       -0.874606   1.000000
   18       -0.861416   1.000000
   19       -0.481847   1.000000
   20       -0.062749   1.000000
   21        0.201260   1.000000
   22        0.279518   1.000000
   23        1.556243   1.000000
   24        1.583312   1.000000
   25        2.061385   1.000000
   26        2.232743   1.000000
   27        4.693626  -0.000000
   28        4.714678  -0.000000
   29        5.236594  -0.000000
   30        5.250445  -0.000000
   31        5.892496  -0.000000
   32        6.212477  -0.000000
   33        6.537051  -0.000000
   34        6.573979  -0.000000
   35        7.801155  -0.000000
   36        7.915906  -0.000000
   37        7.989690  -0.000000
   38        8.480272  -0.000000
   39        8.493306  -0.000000
   40        8.582122  -0.000000
   41        8.814094   0.000000
   42        8.908007   0.000000
   43        9.646550   0.000000
   44        9.648889   0.000000
   45       11.326357   0.000000
   46       11.344395   0.000000
   47       12.328151   0.000000
   48       12.608739   0.000000
 
  0.4000000E+00  0.2000000E+00  0.0000000E+00  0.1333333E-01
    1      -20.905459   1.000000
    2      -20.903991   1.000000
    3      -20.893987   1.000000
    4      -20.891593   1.000000
    5      -17.958874   1.000000
    6      -17.953487   1.000000
    7      -17.943104   1.000000
    8      -17.940106   1.000000
    9      -17.926172   1.000000
   10      -17.924275   1.000000
   11       -8.120802   1.000000
   12       -8.119991   1.000000
   13       -7.509992   1.000000
   14       -7.505676   1.000000
   15       -3.306087   1.000000
   16       -3.145304   1.000000
   17       -2.303457   1.000000
   18       -2.232366   1.000000
   19       -0.496030   1.000000
   20       -0.042515   1.000000
   21        0.269633   1.000000
   22        0.455371   1.000000
   23        0.553134   1.000000
   24        0.910816   1.000000
   25        1.326935   1.000000
   26        1.811508   1.000000
   27        4.837094  -0.000000
   28        5.052931  -0.000000
   29        5.389145  -0.000000
   30        5.413883  -0.000000
   31        5.852652  -0.000000
   32        6.271173  -0.000000
   33        6.551025  -0.000000
   34        6.683476  -0.000000
   35        7.441922  -0.000000
   36        7.495929  -0.000000
   37        8.337634  -0.000000
   38        8.543610  -0.000000
   39        9.122369   0.000000
   40        9.296193   0.000000
   41        9.664760   0.000000
   42        9.739477   0.000000
   43       10.575578   0.000000
   44       10.980634   0.000000
   45       11.835245   0.000000
   46       12.114665   0.000000
   47       12.481977   0.000000
   48       12.550412   0.000000
 
 -0.4000000E+00  0.2000000E+00  0.0000000E+00  0.1333333E-01
    1      -20.905459   1.000000
    2      -20.903991   1.000000
    3      -20.893986   1.000000
    4      -20.891593   1.000000
    5      -17.958874   1.000000
    6      -17.953487   1.000000
    7      -17.943104   1.000000
    8      -17.940106   1.000000
    9      -17.926172   1.000000
   10      -17.924275   1.000000
   11       -8.120808   1.000000
   12       -8.119986   1.000000
   13       -7.509987   1.000000
   14       -7.505681   1.000000
   15       -3.306098   1.000000
   16       -3.145292   1.000000
   17       -2.303447   1.000000
   18       -2.232378   1.000000
   19       -0.496021   1.000000
   20       -0.042526   1.000000
   21        0.269629   1.000000
   22        0.455377   1.000000
   23        0.553126   1.000000
   24        0.910823   1.000000
   25        1.326936   1.000000
   26        1.811507   1.000000
   27        4.837102  -0.000000
   28        5.052922  -0.000000
   29        5.389132  -0.000000
   30        5.413896  -0.000000
   31        5.852645  -0.000000
   32        6.271185  -0.000000
   33        6.551027  -0.000000
   34        6.683472  -0.000000
   35        7.441903  -0.000000
   36        7.495947  -0.000000
   37        8.337633  -0.000000
   38        8.543611  -0.000000
   39        9.122374   0.000000
   40        9.296188   0.000000
   41        9.664742   0.000000
   42        9.739496   0.000000
   43       10.575571   0.000000
   44       10.980643   0.000000
   45       11.835250   0.000000
   46       12.114657   0.000000
   47       12.481970   0.000000
   48       12.550411   0.000000
 
 -0.2000000E+00  0.2000000E+00  0.0000000E+00  0.1333333E-01
    1      -20.904905   1.000000
    2      -20.903332   1.000000
    3      -20.896009   1.000000
    4      -20.893086   1.000000
    5      -17.960142   1.000000
    6      -17.952627   1.000000
    7      -17.942306   1.000000
    8      -17.939701   1.000000
    9      -17.929496   1.000000
   10      -17.926959   1.000000
   11       -8.692726   1.000000
   12       -8.692504   1.000000
   13       -7.361420   1.000000
   14       -7.354968   1.000000
   15       -3.506736   1.000000
   16       -3.340194   1.000000
   17       -0.874617   1.000000
   18       -0.861404   1.000000
   19       -0.481841   1.000000
   20       -0.062758   1.000000
   21        0.201263   1.000000
   22        0.279517   1.000000
   23        1.556240   1.000000
   24        1.583315   1.000000
   25        2.061388   1.000000
   26        2.232740   1.000000
   27        4.693635  -0.000000
   28        4.714668  -0.000000
   29        5.236611  -0.000000
   30        5.250428  -0.000000
   31        5.892486  -0.000000
   32        6.212491  -0.000000
   33        6.537064  -0.000000
   34        6.573964  -0.000000
   35        7.801163  -0.000000
   36        7.915903  -0.000000
   37        7.989681  -0.000000
   38        8.480257  -0.000000
   39        8.493313  -0.000000
   40        8.582131  -0.000000
   41        8.814085   0.000000
   42        8.908019   0.000000
   43        9.646544   0.000000
   44        9.648895   0.000000
   45       11.326343   0.000000
   46       11.344409   0.000000
   47       12.328158   0.000000
   48       12.615340   0.000000
 
  0.0000000E+00  0.4000000E+00  0.0000000E+00  0.1333333E-01
    1      -20.904540   1.000000
    2      -20.903997   1.000000
    3      -20.894727   1.000000
    4      -20.893207   1.000000
    5      -17.957479   1.000000
    6      -17.954193   1.000000
    7      -17.943106   1.000000
    8      -17.942941   1.000000
    9      -17.925783   1.000000
   10      -17.925735   1.000000
   11       -8.319237   1.000000
   12       -8.318578   1.000000
   13       -7.648039   1.000000
   14       -7.644325   1.000000
   15       -3.178232   1.000000
   16       -3.012916   1.000000
   17       -1.984254   1.000000
   18       -1.896119   1.000000
   19       -0.685227   1.000000
   20       -0.190429   1.000000
   21        0.301364   1.000000
   22        0.758334   1.000000
   23        1.133071   1.000000
   24        1.146457   1.000000
   25        2.593440   1.000031
   26        2.646173   1.000140
   27        4.319046  -0.000000
   28        4.346907  -0.000000
   29        5.286323  -0.000000
   30        5.406042  -0.000000
   31        6.973432  -0.000000
   32        7.035343  -0.000000
   33        7.221719  -0.000000
   34        7.276187  -0.000000
   35        7.583547  -0.000000
   36        7.612235  -0.000000
   37        8.073856  -0.000000
   38        8.481095  -0.000000
   39        8.778182   0.000000
   40        8.782847   0.000000
   41        8.841651   0.000000
   42        8.953000   0.000000
   43       10.255702   0.000000
   44       10.316619   0.000000
   45       10.457570   0.000000
   46       10.501226   0.000000
   47       11.248391   0.000000
   48       11.292253   0.000000
 
  0.2000000E+00  0.4000000E+00  0.0000000E+00  0.1333333E-01
    1      -20.905459   1.000000
    2      -20.903991   1.000000
    3      -20.893987   1.000000
    4      -20.891593   1.000000
    5      -17.958874   1.000000
    6      -17.953487   1.000000
    7      -17.943104   1.000000
    8      -17.940106   1.000000
    9      -17.926172   1.000000
   10      -17.924275   1.000000
   11       -8.120802   1.000000
   12       -8.119991   1.000000
   13       -7.509992   1.000000
   14       -7.505676   1.000000
   15       -3.306087   1.000000
   16       -3.145303   1.000000
   17       -2.303457   1.000000
   18       -2.232366   1.000000
   19       -0.496030   1.000000
   20       -0.042515   1.000000
   21        0.269633   1.000000
   22        0.455371   1.000000
   23        0.553134   1.000000
   24        0.910816   1.000000
   25        1.326935   1.000000
   26        1.811508   1.000000
   27        4.837093  -0.000000
   28        5.052931  -0.000000
   29        5.389145  -0.000000
   30        5.413883  -0.000000
   31        5.852652  -0.000000
   32        6.271173  -0.000000
   33        6.551025  -0.000000
   34        6.683477  -0.000000
   35        7.441922  -0.000000
   36        7.495928  -0.000000
   37        8.337633  -0.000000
   38        8.543610  -0.000000
   39        9.122369   0.000000
   40        9.296193   0.000000
   41        9.664760   0.000000
   42        9.739477   0.000000
   43       10.575578   0.000000
   44       10.980633   0.000000
   45       11.835245   0.000000
   46       12.114665   0.000000
   47       12.481977   0.000000
   48       12.550441   0.000000
 
  0.4000000E+00  0.4000000E+00  0.0000000E+00  0.1333333E-01
    1      -20.905814   1.000000
    2      -20.904795   1.000000
    3      -20.891977   1.000000
    4      -20.890123   1.000000
    5      -17.958850   1.000000
    6      -17.955441   1.000000
    7      -17.941835   1.000000
    8      -17.940134   1.000000
    9      -17.922314   1.000000
   10      -17.922081   1.000000
   11       -7.674900   1.000000
   12       -7.674276   1.000000
   13       -7.312173   1.000000
   14       -7.309065   1.000000
   15       -3.564514   1.000000
   16       -3.467541   1.000000
   17       -3.118413   1.000000
   18       -3.109196   1.000000
   19       -0.085213   1.000000
   20        0.042993   1.000000
   21        0.234070   1.000000
   22        0.274335   1.000000
   23        0.697006   1.000000
   24        0.781620   1.000000
   25        0.959894   1.000000
   26        1.220092   1.000000
   27        4.064193  -0.000000
   28        4.094367  -0.000000
   29        4.419085  -0.000000
   30        4.422935  -0.000000
   31        4.736518  -0.000000
   32        5.019580  -0.000000
   33        5.225205  -0.000000
   34        5.226846  -0.000000
   35        9.855229   0.000000
   36        9.948782   0.000000
   37        9.971207   0.000000
   38        9.997262   0.000000
   39       10.477207   0.000000
   40       10.688043   0.000000
   41       10.967279   0.000000
   42       11.534725   0.000000
   43       11.919720   0.000000
   44       12.098701   0.000000
   45       12.726224   0.000000
   46       13.112686   0.000000
   47       13.411669   0.000000
   48       13.525467   0.000000
 
 -0.4000000E+00  0.4000000E+00  0.0000000E+00  0.1333333E-01
    1      -20.905813   1.000000
    2      -20.904796   1.000000
    3      -20.891977   1.000000
    4      -20.890124   1.000000
    5      -17.958851   1.000000
    6      -17.955441   1.000000
    7      -17.941836   1.000000
    8      -17.940133   1.000000
    9      -17.922314   1.000000
   10      -17.922081   1.000000
   11       -7.674895   1.000000
   12       -7.674281   1.000000
   13       -7.312169   1.000000
   14       -7.309068   1.000000
   15       -3.564522   1.000000
   16       -3.467532   1.000000
   17       -3.118422   1.000000
   18       -3.109188   1.000000
   19       -0.085211   1.000000
   20        0.042990   1.000000
   21        0.234075   1.000000
   22        0.274329   1.000000
   23        0.697005   1.000000
   24        0.781620   1.000000
   25        0.959899   1.000000
   26        1.220088   1.000000
   27        4.064210  -0.000000
   28        4.094350  -0.000000
   29        4.419103  -0.000000
   30        4.422917  -0.000000
   31        4.736510  -0.000000
   32        5.019590  -0.000000
   33        5.225194  -0.000000
   34        5.226856  -0.000000
   35        9.855227   0.000000
   36        9.948784   0.000000
   37        9.971211   0.000000
   38        9.997258   0.000000
   39       10.477217   0.000000
   40       10.688033   0.000000
   41       10.967270   0.000000
   42       11.534732   0.000000
   43       11.919720   0.000000
   44       12.098707   0.000000
   45       12.726227   0.000000
   46       13.112678   0.000000
   47       13.411665   0.000000
   48       13.525523   0.000000
 
 -0.2000000E+00  0.4000000E+00  0.0000000E+00  0.1333333E-01
    1      -20.905458   1.000000
    2      -20.903992   1.000000
    3      -20.893986   1.000000
    4      -20.891593   1.000000
    5      -17.958875   1.000000
    6      -17.953487   1.000000
    7      -17.943105   1.000000
    8      -17.940104   1.000000
    9      -17.926172   1.000000
   10      -17.924276   1.000000
   11       -8.120798   1.000000
   12       -8.119996   1.000000
   13       -7.509990   1.000000
   14       -7.505678   1.000000
   15       -3.306094   1.000000
   16       -3.145296   1.000000
   17       -2.303463   1.000000
   18       -2.232359   1.000000
   19       -0.496031   1.000000
   20       -0.042514   1.000000
   21        0.269635   1.000000
   22        0.455362   1.000000
   23        0.553140   1.000000
   24        0.910816   1.000000
   25        1.326937   1.000000
   26        1.811504   1.000000
   27        4.837081  -0.000000
   28        5.052944  -0.000000
   29        5.389166  -0.000000
   30        5.413859  -0.000000
   31        5.852642  -0.000000
   32        6.271188  -0.000000
   33        6.551006  -0.000000
   34        6.683492  -0.000000
   35        7.441921  -0.000000
   36        7.495929  -0.000000
   37        8.337621  -0.000000
   38        8.543624  -0.000000
   39        9.122383   0.000000
   40        9.296181   0.000000
   41        9.664756   0.000000
   42        9.739481   0.000000
   43       10.575592   0.000000
   44       10.980618   0.000000
   45       11.835252   0.000000
   46       12.114658   0.000000
   47       12.481969   0.000000
   48       12.550428   0.000000
 
  0.0000000E+00 -0.4000000E+00  0.0000000E+00  0.1333333E-01
    1      -20.904539   1.000000
    2      -20.903998   1.000000
    3      -20.894726   1.000000
    4      -20.893208   1.000000
    5      -17.957480   1.000000
    6      -17.954192   1.000000
    7      -17.943108   1.000000
    8      -17.942938   1.000000
    9      -17.925783   1.000000
   10      -17.925735   1.000000
   11       -8.319244   1.000000
   12       -8.318570   1.000000
   13       -7.648033   1.000000
   14       -7.644331   1.000000
   15       -3.178244   1.000000
   16       -3.012902   1.000000
   17       -1.984244   1.000000
   18       -1.896132   1.000000
   19       -0.685217   1.000000
   20       -0.190438   1.000000
   21        0.301355   1.000000
   22        0.758343   1.000000
   23        1.133081   1.000000
   24        1.146448   1.000000
   25        2.593441   1.000031
   26        2.646171   1.000140
   27        4.319068  -0.000000
   28        4.346884  -0.000000
   29        5.286338  -0.000000
   30        5.406030  -0.000000
   31        6.973441  -0.000000
   32        7.035329  -0.000000
   33        7.221735  -0.000000
   34        7.276174  -0.000000
   35        7.583572  -0.000000
   36        7.612212  -0.000000
   37        8.073845  -0.000000
   38        8.481091  -0.000000
   39        8.778192   0.000000
   40        8.782852   0.000000
   41        8.841674   0.000000
   42        8.952977   0.000000
   43       10.255722   0.000000
   44       10.316600   0.000000
   45       10.457576   0.000000
   46       10.501220   0.000000
   47       11.248387   0.000000
   48       11.292257   0.000000
 
  0.2000000E+00 -0.4000000E+00  0.0000000E+00  0.1333333E-01
    1      -20.905459   1.000000
    2      -20.903991   1.000000
    3      -20.893986   1.000000
    4      -20.891593   1.000000
    5      -17.958874   1.000000
    6      -17.953487   1.000000
    7      -17.943104   1.000000
    8      -17.940106   1.000000
    9      -17.926172   1.000000
   10      -17.924275   1.000000
   11       -8.120808   1.000000
   12       -8.119986   1.000000
   13       -7.509987   1.000000
   14       -7.505681   1.000000
   15       -3.306098   1.000000
   16       -3.145292   1.000000
   17       -2.303446   1.000000
   18       -2.232377   1.000000
   19       -0.496021   1.000000
   20       -0.042526   1.000000
   21        0.269628   1.000000
   22        0.455377   1.000000
   23        0.553126   1.000000
   24        0.910823   1.000000
   25        1.326936   1.000000
   26        1.811507   1.000000
   27        4.837102  -0.000000
   28        5.052922  -0.000000
   29        5.389133  -0.000000
   30        5.413896  -0.000000
   31        5.852645  -0.000000
   32        6.271185  -0.000000
   33        6.551027  -0.000000
   34        6.683472  -0.000000
   35        7.441902  -0.000000
   36        7.495947  -0.000000
   37        8.337633  -0.000000
   38        8.543610  -0.000000
   39        9.122374   0.000000
   40        9.296188   0.000000
   41        9.664742   0.000000
   42        9.739496   0.000000
   43       10.575572   0.000000
   44       10.980643   0.000000
   45       11.835251   0.000000
   46       12.114657   0.000000
   47       12.481975   0.000000
   48       12.550447   0.000000
 
  0.4000000E+00 -0.4000000E+00  0.0000000E+00  0.1333333E-01
    1      -20.905813   1.000000
    2      -20.904796   1.000000
    3      -20.891976   1.000000
    4      -20.890124   1.000000
    5      -17.958851   1.000000
    6      -17.955440   1.000000
    7      -17.941836   1.000000
    8      -17.940133   1.000000
    9      -17.922314   1.000000
   10      -17.922081   1.000000
   11       -7.674895   1.000000
   12       -7.674281   1.000000
   13       -7.312169   1.000000
   14       -7.309068   1.000000
   15       -3.564522   1.000000
   16       -3.467532   1.000000
   17       -3.118422   1.000000
   18       -3.109188   1.000000
   19       -0.085211   1.000000
   20        0.042990   1.000000
   21        0.234075   1.000000
   22        0.274329   1.000000
   23        0.697005   1.000000
   24        0.781620   1.000000
   25        0.959899   1.000000
   26        1.220088   1.000000
   27        4.064210  -0.000000
   28        4.094350  -0.000000
   29        4.419103  -0.000000
   30        4.422916  -0.000000
   31        4.736510  -0.000000
   32        5.019591  -0.000000
   33        5.225193  -0.000000
   34        5.226857  -0.000000
   35        9.855227   0.000000
   36        9.948784   0.000000
   37        9.971211   0.000000
   38        9.997258   0.000000
   39       10.477217   0.000000
   40       10.688033   0.000000
   41       10.967270   0.000000
   42       11.534732   0.000000
   43       11.919720   0.000000
   44       12.098707   0.000000
   45       12.726228   0.000000
   46       13.112677   0.000000
   47       13.411658   0.000000
   48       13.525473   0.000000
 
 -0.4000000E+00 -0.4000000E+00  0.0000000E+00  0.1333333E-01
    1      -20.905812   1.000000
    2      -20.904797   1.000000