 vasp.5.4.4.18Apr17-6-g9f103f2a35 (build Dec 22 2021 20:15:33) complex          
  
 executed on             LinuxIFC date 2019.05.17  18:14:59
 running on   32 total cores
 distrk:  each k-point on   32 cores,    1 groups
 distr:  one band on NCORES_PER_BAND=   8 cores,    4 groups


--------------------------------------------------------------------------------------------------------


 INCAR:
 POTCAR:    PAW_PBE Ga 08Apr2002                  
 POTCAR:    PAW_PBE Bi_d 06Sep2000                
 POTCAR:    PAW_PBE As 22Sep2009                  
 POTCAR:    PAW_PBE Ga 08Apr2002                  
   VRHFIN =Ga: s2p1                                                             
   LEXCH  = PE                                                                  
   EATOM  =    58.8688 eV,    4.3267 Ry                                         
                                                                                
   TITEL  = PAW_PBE Ga 08Apr2002                                                
   LULTRA =        F    use ultrasoft PP ?                                      
   IUNSCR =        1    unscreen: 0-lin 1-nonlin 2-no                           
   RPACOR =    2.170    partial core radius                                     
   POMASS =   69.723; ZVAL   =    3.000    mass and valenz                      
   RCORE  =    2.600    outmost cutoff radius                                   
   RWIGS  =    2.650; RWIGS  =    1.402    wigner-seitz radius (au A)           
   ENMAX  =  134.678; ENMIN  =  101.009 eV                                      
   ICORE  =        3    local potential                                         
   LCOR   =        T    correct aug charges                                     
   LPAW   =        T    paw PP                                                  
   EAUG   =  320.264                                                            
   DEXC   =    0.000                                                            
   RMAX   =    2.658    core radius for proj-oper                               
   RAUG   =    1.300    factor for augmentation sphere                          
   RDEP   =    2.684    radius for radial grids                                 
   RDEPT  =    2.308    core radius for aug-charge                              
                                                                                
   Atomic configuration                                                         
   10 entries                                                                   
     n  l   j            E        occ.                                          
     1  0  0.50    -10228.7830   2.0000                                         
     2  0  0.50     -1262.1604   2.0000                                         
     2  1  1.50     -1098.6333   6.0000                                         
     3  0  0.50      -148.1110   2.0000                                         
     3  1  1.50       -98.8436   6.0000                                         
     3  2  2.50       -19.1549  10.0000                                         
     4  0  0.50        -8.9483   2.0000                                         
     4  1  0.50        -2.5791   1.0000                                         
     4  2  1.50         5.4423   0.0000                                         
     4  3  2.50        -2.7416   0.0000                                         
   Description                                                                  
     l       E           TYP  RCUT    TYP  RCUT                                 
     0     -8.9483097     23  2.600                                             
     0     -5.8232215     23  2.600                                             
     1     -2.5790793     23  2.600                                             
     1      5.2230115     23  2.600                                             
     2      1.3605826     23  2.600                                             
     3     -1.3605826      7  2.600                                             
  local pseudopotential read in
  partial core-charges read in
  partial kinetic energy density read in
  atomic valenz-charges read in
  non local Contribution for L=           0  read in
    real space projection operators read in
  non local Contribution for L=           0  read in
    real space projection operators read in
  non local Contribution for L=           1  read in
    real space projection operators read in
  non local Contribution for L=           1  read in
    real space projection operators read in
  non local Contribution for L=           2  read in
    real space projection operators read in
    PAW grid and wavefunctions read in
 
   number of l-projection  operators is LMAX  =           5
   number of lm-projection operators is LMMAX =          13
 
 POTCAR:    PAW_PBE Bi_d 06Sep2000                
   VRHFIN =Bi:                                                                  
   LEXCH  = PE                                                                  
   EATOM  =  1959.2045 eV,  143.9975 Ry                                         
                                                                                
   TITEL  = PAW_PBE Bi_d 06Sep2000                                              
   LULTRA =        F    use ultrasoft PP ?                                      
   IUNSCR =        1    unscreen: 0-lin 1-nonlin 2-no                           
   RPACOR =    2.200    partial core radius                                     
   POMASS =  208.980; ZVAL   =   15.000    mass and valenz                      
   RCORE  =    2.500    outmost cutoff radius                                   
   RWIGS  =    3.090; RWIGS  =    1.635    wigner-seitz radius (au A)           
   ENMAX  =  242.839; ENMIN  =  182.129 eV                                      
   ICORE  =        3    local potential                                         
   LCOR   =        T    correct aug charges                                     
   LPAW   =        T    paw PP                                                  
   EAUG   =  442.899                                                            
   DEXC   =    0.000                                                            
   RMAX   =    2.551    core radius for proj-oper                               
   RAUG   =    1.300    factor for augmentation sphere                          
   RDEP   =    2.650    radius for radial grids                                 
   RDEPT  =    2.039    core radius for aug-charge                              
                                                                                
   Atomic configuration                                                         
   16 entries                                                                   
     n  l   j            E        occ.                                          
     1  0  0.50    -90639.6581   2.0000                                         
     2  0  0.50    -16282.4666   2.0000                                         
     2  1  1.50    -13922.8286   6.0000                                         
     3  0  0.50     -3930.4763   2.0000                                         
     3  1  1.50     -3256.7013   6.0000                                         
     3  2  2.50     -2581.6168  10.0000                                         
     4  0  0.50      -902.2614   2.0000                                         
     4  1  1.50      -681.5915   6.0000                                         
     4  2  2.50      -429.8249  10.0000                                         
     4  3  3.50      -152.6004  14.0000                                         
     5  0  0.50      -157.7156   2.0000                                         
     5  1  1.50       -95.8054   6.0000                                         
     5  2  2.50       -27.0806  10.0000                                         
     6  0  0.50       -14.4732   2.0000                                         
     6  1  1.50        -4.5702   3.0000                                         
     5  3  2.50        -2.7212   0.0000                                         
   Description                                                                  
     l       E           TYP  RCUT    TYP  RCUT                                 
     2    -27.0805982     23  2.500                                             
     2     -1.3605826     23  2.500                                             
     0    -14.4732271     23  2.500                                             
     0      6.8029130     23  2.500                                             
     1     -4.5701651     23  2.500                                             
     1     13.6058260     23  2.500                                             
     3     -1.3605826      7  2.500                                             
  local pseudopotential read in
  partial core-charges read in
  partial kinetic energy density read in
  atomic valenz-charges read in
  non local Contribution for L=           2  read in
    real space projection operators read in
  non local Contribution for L=           2  read in
    real space projection operators read in
  non local Contribution for L=           0  read in
    real space projection operators read in
  non local Contribution for L=           0  read in
    real space projection operators read in
  non local Contribution for L=           1  read in
    real space projection operators read in
  non local Contribution for L=           1  read in
    real space projection operators read in
    PAW grid and wavefunctions read in
 
   number of l-projection  operators is LMAX  =           6
   number of lm-projection operators is LMMAX =          18
 
 POTCAR:    PAW_PBE As 22Sep2009                  
   VRHFIN =As: s2p3                                                             
   LEXCH  = PE                                                                  
   EATOM  =   170.1867 eV,   12.5084 Ry                                         
                                                                                
   TITEL  = PAW_PBE As 22Sep2009                                                
   LULTRA =        F    use ultrasoft PP ?                                      
   IUNSCR =        1    unscreen: 0-lin 1-nonlin 2-no                           
   RPACOR =    1.900    partial core radius                                     
   POMASS =   74.922; ZVAL   =    5.000    mass and valenz                      
   RCORE  =    2.100    outmost cutoff radius                                   
   RWIGS  =    2.300; RWIGS  =    1.217    wigner-seitz radius (au A)           
   ENMAX  =  208.702; ENMIN  =  156.526 eV                                      
   ICORE  =        3    local potential                                         
   LCOR   =        T    correct aug charges                                     
   LPAW   =        T    paw PP                                                  
   EAUG   =  462.758                                                            
   DEXC   =    0.000                                                            
   RMAX   =    2.144    core radius for proj-oper                               
   RAUG   =    1.300    factor for augmentation sphere                          
   RDEP   =    2.140    radius for radial grids                                 
   RDEPT  =    1.956    core radius for aug-charge                              
                                                                                
   Atomic configuration                                                         
   10 entries                                                                   
     n  l   j            E        occ.                                          
     1  0  0.50    -11718.0418   2.0000                                         
     2  0  0.50     -1486.5454   2.0000                                         
     2  1  1.50     -1303.3889   6.0000                                         
     3  0  0.50      -190.2849   2.0000                                         
     3  1  1.50      -133.6555   6.0000                                         
     3  2  2.50       -40.6443  10.0000                                         
     4  0  0.50       -14.4936   2.0000                                         
     4  1  0.50        -5.1947   3.0000                                         
     4  2  1.50        -5.4423   0.0000                                         
     4  3  2.50        -5.4423   0.0000                                         
   Description                                                                  
     l       E           TYP  RCUT    TYP  RCUT                                 
     0    -14.4935570     23  2.100                                             
     0    -11.9212055     23  2.100                                             
     1     -5.1947127     23  2.100                                             
     1     27.2116520     23  2.100                                             
     2     -5.4423304     23  2.100                                             
     3     -1.3605826      7  2.100                                             
  local pseudopotential read in
  partial core-charges read in
  partial kinetic energy density read in
  atomic valenz-charges read in
  non local Contribution for L=           0  read in
    real space projection operators read in
  non local Contribution for L=           0  read in
    real space projection operators read in
  non local Contribution for L=           1  read in
    real space projection operators read in
  non local Contribution for L=           1  read in
    real space projection operators read in
  non local Contribution for L=           2  read in
    real space projection operators read in
    PAW grid and wavefunctions read in
 
   number of l-projection  operators is LMAX  =           5
   number of lm-projection operators is LMMAX =          13
 

 ----------------------------------------------------------------------------- 
|                                                                             |
|  ADVICE TO THIS USER RUNNING 'VASP/VAMP'   (HEAR YOUR MASTER'S VOICE ...):  |
|                                                                             |
|      You have a (more or less) 'small supercell' and for smaller cells      |
|      it is recommended  to use the reciprocal-space projection scheme!      |
|      The real space optimization is not  efficient for small cells and it   |
|      is also less accurate ...                                              |
|      Therefore set LREAL=.FALSE. in the  INCAR file                         |
|                                                                             |
 ----------------------------------------------------------------------------- 

 Optimization of the real space projectors (new method)

 maximal supplied QI-value         = 14.36
 optimisation between [QCUT,QGAM] = [ 11.35, 22.84] = [ 36.05,146.02] Ry 
 Optimized for a Real-space Cutoff    1.43 Angstroem

   l    n(q)    QCUT    max X(q) W(low)/X(q) W(high)/X(q)  e(spline) 
   0     10    11.346    81.156    0.45E-04    0.70E-04    0.62E-07
   0     10    11.346    65.205    0.45E-04    0.72E-04    0.63E-07
   1      9    11.346    44.874    0.15E-03    0.63E-04    0.19E-06
   1      9    11.346    25.010    0.16E-03    0.59E-04    0.19E-06
   2      9    11.346     5.217    0.61E-04    0.14E-03    0.62E-07
 Optimization of the real space projectors (new method)

 maximal supplied QI-value         = 15.12
 optimisation between [QCUT,QGAM] = [ 11.34, 22.83] = [ 36.00,145.93] Ry 
 Optimized for a Real-space Cutoff    1.39 Angstroem

   l    n(q)    QCUT    max X(q) W(low)/X(q) W(high)/X(q)  e(spline) 
   2      9    11.338     4.360    0.29E-04    0.91E-04    0.84E-07
   2      9    11.338     7.451    0.91E-04    0.83E-04    0.19E-06
   0      9    11.338    21.015    0.59E-04    0.59E-05    0.80E-07
   0      9    11.338     9.183    0.87E-04    0.88E-05    0.12E-06
   1      9    11.338    25.904    0.84E-04    0.19E-03    0.11E-06
   1      9    11.338    13.553    0.73E-04    0.17E-03    0.10E-06
 Optimization of the real space projectors (new method)

 maximal supplied QI-value         = 17.95
 optimisation between [QCUT,QGAM] = [ 11.31, 22.80] = [ 35.82,145.56] Ry 
 Optimized for a Real-space Cutoff    1.31 Angstroem

   l    n(q)    QCUT    max X(q) W(low)/X(q) W(high)/X(q)  e(spline) 
   0      9    11.310   117.213    0.44E-04    0.60E-04    0.75E-07
   0      9    11.310    98.411    0.42E-04    0.60E-04    0.74E-07
   1      8    11.310    10.093    0.11E-03    0.13E-03    0.10E-06
   1      8    11.310     5.228    0.97E-04    0.12E-03    0.93E-07
   2      8    11.310     4.067    0.36E-04    0.60E-04    0.60E-07
  PAW_PBE Ga 08Apr2002                  :
 energy of atom  1       EATOM=  -58.8688
 kinetic energy error for atom=    0.0000 (will be added to EATOM!!)
  PAW_PBE Bi_d 06Sep2000                :
 energy of atom  2       EATOM=-1959.2045
 kinetic energy error for atom=    0.0049 (will be added to EATOM!!)
  PAW_PBE As 22Sep2009                  :
 energy of atom  3       EATOM= -170.1867
 kinetic energy error for atom=    0.0005 (will be added to EATOM!!)
 
 
 POSCAR: Ga2 Bi1 As1                             
  positions in direct lattice
  No initial velocities read in
 exchange correlation table for  LEXCH =        8
   RHO(1)=    0.500       N(1)  =     2000
   RHO(2)=  100.500       N(2)  =     4000
 


--------------------------------------------------------------------------------------------------------


 ion  position               nearest neighbor table
   1  0.500  0.000  0.726-   4 2.56   4 2.56   3 2.73   3 2.73
   2  0.000  0.500  0.274-   4 2.56   4 2.56   3 2.73   3 2.73
   3  0.000  0.000  0.000-   1 2.73   1 2.73   2 2.73   2 2.73
   4  0.500  0.500  0.500-   2 2.56   2 2.56   1 2.56   1 2.56
 
  LATTYP: Found a simple tetragonal cell.
 ALAT       =     4.3001408577
 C/A-ratio  =     1.4292232167
  
  Lattice vectors:
  
 A1 = (   4.3001408577,   0.0000000000,   0.0000000000)
 A2 = (   0.0000000000,   4.3001408577,   0.0000000000)
 A3 = (   0.0000000000,   0.0000000000,   6.1458611488)


Analysis of symmetry for initial positions (statically):
=====================================================================
 Subroutine PRICEL returns:
 Original cell was already a primitive cell.
 

 Routine SETGRP: Setting up the symmetry group for a 
 simple tetragonal supercell.


 Subroutine GETGRP returns: Found  8 space group operations
 (whereof  8 operations were pure point group operations)
 out of a pool of 16 trial point group operations.


The static configuration has the point symmetry D_2d.


Analysis of symmetry for dynamics (positions and initial velocities):
=====================================================================
 Subroutine PRICEL returns:
 Original cell was already a primitive cell.
 

 Routine SETGRP: Setting up the symmetry group for a 
 simple tetragonal supercell.


 Subroutine GETGRP returns: Found  8 space group operations
 (whereof  8 operations were pure point group operations)
 out of a pool of 16 trial point group operations.


The dynamic configuration has the point symmetry D_2d.


Analysis of structural, dynamic, and magnetic symmetry:
=====================================================================
 Subroutine PRICEL returns:
 Original cell was already a primitive cell.
 

 Routine SETGRP: Setting up the symmetry group for a 
 simple tetragonal supercell.


 Subroutine GETGRP returns: Found  1 space group operations
 (whereof  1 operations were pure point group operations)
 out of a pool of 16 trial point group operations.


The (compounded) configuration has the point symmetry C_1 .


 Subroutine INISYM returns: Found  1 space group operations
 (whereof  1 operations are pure point group operations),
 and found     1 'primitive' translations

 
 
 KPOINTS: MP                                      

Automatic generation of k-mesh.
Space group operators:
 irot       det(A)        alpha          n_x          n_y          n_z        tau_x        tau_y        tau_z
    1     1.000000     0.000001     1.000000     0.000000     0.000000     0.000000     0.000000     0.000000
 
 Subroutine IBZKPT returns following result:
 ===========================================
 
 Found     75 irreducible k-points:
 
 Following reciprocal coordinates:
            Coordinates               Weight
  0.000000  0.000000  0.000000      1.000000
  0.200000  0.000000  0.000000      1.000000
  0.400000  0.000000  0.000000      1.000000
 -0.400000  0.000000  0.000000      1.000000
 -0.200000  0.000000  0.000000      1.000000
  0.000000  0.200000  0.000000      1.000000
  0.200000  0.200000  0.000000      1.000000
  0.400000  0.200000  0.000000      1.000000
 -0.400000  0.200000  0.000000      1.000000
 -0.200000  0.200000  0.000000      1.000000
  0.000000  0.400000  0.000000      1.000000
  0.200000  0.400000  0.000000      1.000000
  0.400000  0.400000  0.000000      1.000000
 -0.400000  0.400000  0.000000      1.000000
 -0.200000  0.400000  0.000000      1.000000
  0.000000 -0.400000  0.000000      1.000000
  0.200000 -0.400000  0.000000      1.000000
  0.400000 -0.400000  0.000000      1.000000
 -0.400000 -0.400000  0.000000      1.000000
 -0.200000 -0.400000  0.000000      1.000000
  0.000000 -0.200000  0.000000      1.000000
  0.200000 -0.200000  0.000000      1.000000
  0.400000 -0.200000  0.000000      1.000000
 -0.400000 -0.200000  0.000000      1.000000
 -0.200000 -0.200000  0.000000      1.000000
  0.000000  0.000000  0.333333      1.000000
  0.200000  0.000000  0.333333      1.000000
  0.400000  0.000000  0.333333      1.000000
 -0.400000  0.000000  0.333333      1.000000
 -0.200000  0.000000  0.333333      1.000000
  0.000000  0.200000  0.333333      1.000000
  0.200000  0.200000  0.333333      1.000000
  0.400000  0.200000  0.333333      1.000000
 -0.400000  0.200000  0.333333      1.000000
 -0.200000  0.200000  0.333333      1.000000
  0.000000  0.400000  0.333333      1.000000
  0.200000  0.400000  0.333333      1.000000
  0.400000  0.400000  0.333333      1.000000
 -0.400000  0.400000  0.333333      1.000000
 -0.200000  0.400000  0.333333      1.000000
  0.000000 -0.400000  0.333333      1.000000
  0.200000 -0.400000  0.333333      1.000000
  0.400000 -0.400000  0.333333      1.000000
 -0.400000 -0.400000  0.333333      1.000000
 -0.200000 -0.400000  0.333333      1.000000
  0.000000 -0.200000  0.333333      1.000000
  0.200000 -0.200000  0.333333      1.000000
  0.400000 -0.200000  0.333333      1.000000
 -0.400000 -0.200000  0.333333      1.000000
 -0.200000 -0.200000  0.333333      1.000000
  0.000000  0.000000 -0.333333      1.000000
  0.200000  0.000000 -0.333333      1.000000
  0.400000  0.000000 -0.333333      1.000000
 -0.400000  0.000000 -0.333333      1.000000
 -0.200000  0.000000 -0.333333      1.000000
  0.000000  0.200000 -0.333333      1.000000
  0.200000  0.200000 -0.333333      1.000000
  0.400000  0.200000 -0.333333      1.000000
 -0.400000  0.200000 -0.333333      1.000000
 -0.200000  0.200000 -0.333333      1.000000
  0.000000  0.400000 -0.333333      1.000000
  0.200000  0.400000 -0.333333      1.000000
  0.400000  0.400000 -0.333333      1.000000
 -0.400000  0.400000 -0.333333      1.000000
 -0.200000  0.400000 -0.333333      1.000000
  0.000000 -0.400000 -0.333333      1.000000
  0.200000 -0.400000 -0.333333      1.000000
  0.400000 -0.400000 -0.333333      1.000000
 -0.400000 -0.400000 -0.333333      1.000000
 -0.200000 -0.400000 -0.333333      1.000000
  0.000000 -0.200000 -0.333333      1.000000
  0.200000 -0.200000 -0.333333      1.000000
  0.400000 -0.200000 -0.333333      1.000000
 -0.400000 -0.200000 -0.333333      1.000000
 -0.200000 -0.200000 -0.333333      1.000000
 
 Following cartesian coordinates:
            Coordinates               Weight
  0.000000  0.000000  0.000000      1.000000
  0.046510  0.000000  0.000000      1.000000
  0.093020  0.000000  0.000000      1.000000
 -0.093020  0.000000  0.000000      1.000000
 -0.046510  0.000000  0.000000      1.000000
  0.000000  0.046510  0.000000      1.000000
  0.046510  0.046510  0.000000      1.000000
  0.093020  0.046510  0.000000      1.000000
 -0.093020  0.046510  0.000000      1.000000
 -0.046510  0.046510  0.000000      1.000000
  0.000000  0.093020  0.000000      1.000000
  0.046510  0.093020  0.000000      1.000000
  0.093020  0.093020  0.000000      1.000000
 -0.093020  0.093020  0.000000      1.000000
 -0.046510  0.093020  0.000000      1.000000
  0.000000 -0.093020  0.000000      1.000000
  0.046510 -0.093020  0.000000      1.000000
  0.093020 -0.093020  0.000000      1.000000
 -0.093020 -0.093020  0.000000      1.000000
 -0.046510 -0.093020  0.000000      1.000000
  0.000000 -0.046510  0.000000      1.000000
  0.046510 -0.046510  0.000000      1.000000
  0.093020 -0.046510  0.000000      1.000000
 -0.093020 -0.046510  0.000000      1.000000
 -0.046510 -0.046510  0.000000      1.000000
  0.000000  0.000000  0.054237      1.000000
  0.046510  0.000000  0.054237      1.000000
  0.093020  0.000000  0.054237      1.000000
 -0.093020  0.000000  0.054237      1.000000
 -0.046510  0.000000  0.054237      1.000000
  0.000000  0.046510  0.054237      1.000000
  0.046510  0.046510  0.054237      1.000000
  0.093020  0.046510  0.054237      1.000000
 -0.093020  0.046510  0.054237      1.000000
 -0.046510  0.046510  0.054237      1.000000
  0.000000  0.093020  0.054237      1.000000
  0.046510  0.093020  0.054237      1.000000
  0.093020  0.093020  0.054237      1.000000
 -0.093020  0.093020  0.054237      1.000000
 -0.046510  0.093020  0.054237      1.000000
  0.000000 -0.093020  0.054237      1.000000
  0.046510 -0.093020  0.054237      1.000000
  0.093020 -0.093020  0.054237      1.000000
 -0.093020 -0.093020  0.054237      1.000000
 -0.046510 -0.093020  0.054237      1.000000
  0.000000 -0.046510  0.054237      1.000000
  0.046510 -0.046510  0.054237      1.000000
  0.093020 -0.046510  0.054237      1.000000
 -0.093020 -0.046510  0.054237      1.000000
 -0.046510 -0.046510  0.054237      1.000000
  0.000000  0.000000 -0.054237      1.000000
  0.046510  0.000000 -0.054237      1.000000
  0.093020  0.000000 -0.054237      1.000000
 -0.093020  0.000000 -0.054237      1.000000
 -0.046510  0.000000 -0.054237      1.000000
  0.000000  0.046510 -0.054237      1.000000
  0.046510  0.046510 -0.054237      1.000000
  0.093020  0.046510 -0.054237      1.000000
 -0.093020  0.046510 -0.054237      1.000000
 -0.046510  0.046510 -0.054237      1.000000
  0.000000  0.093020 -0.054237      1.000000
  0.046510  0.093020 -0.054237      1.000000
  0.093020  0.093020 -0.054237      1.000000
 -0.093020  0.093020 -0.054237      1.000000
 -0.046510  0.093020 -0.054237      1.000000
  0.000000 -0.093020 -0.054237      1.000000
  0.046510 -0.093020 -0.054237      1.000000
  0.093020 -0.093020 -0.054237      1.000000
 -0.093020 -0.093020 -0.054237      1.000000
 -0.046510 -0.093020 -0.054237      1.000000
  0.000000 -0.046510 -0.054237      1.000000
  0.046510 -0.046510 -0.054237      1.000000
  0.093020 -0.046510 -0.054237      1.000000
 -0.093020 -0.046510 -0.054237      1.000000
 -0.046510 -0.046510 -0.054237      1.000000
 


--------------------------------------------------------------------------------------------------------




 Dimension of arrays:
   k-points           NKPTS =     75   k-points in BZ     NKDIM =     75   number of bands    NBANDS=     48
   number of dos      NEDOS =    301   number of ions     NIONS =      4
   non local maximal  LDIM  =      6   non local SUM 2l+1 LMDIM =     18
   total plane-waves  NPLWV =  49152
   max r-space proj   IRMAX =   5363   max aug-charges    IRDMAX=  31281
   dimension x,y,z NGX =    32 NGY =   32 NGZ =   48
   dimension x,y,z NGXF=    64 NGYF=   64 NGZF=   96
   support grid    NGXF=    64 NGYF=   64 NGZF=   96
   ions per type =               2   1   1
   NGX,Y,Z   is equivalent  to a cutoff of  12.37, 12.37, 12.98 a.u.
   NGXF,Y,Z  is equivalent  to a cutoff of  24.74, 24.74, 25.97 a.u.

 SYSTEM =  Ga2BiAs                                 
 POSCAR =  Ga2 Bi1 As1                             

 Startparameter for this run:
   NWRITE =      2    write-flag & timer
   PREC   = accura    normal or accurate (medium, high low for compatibility)
   ISTART =      0    job   : 0-new  1-cont  2-samecut
   ICHARG =      2    charge: 1-file 2-atom 10-const
   ISPIN  =      1    spin polarized calculation?
   LNONCOLLINEAR =      T non collinear calculations
   LSORBIT =      T    spin-orbit coupling
   INIWAV =      1    electr: 0-lowe 1-rand  2-diag
   LASPH  =      F    aspherical Exc in radial PAW
   METAGGA=      F    non-selfconsistent MetaGGA calc.

 Electronic Relaxation 1
   ENCUT  =  500.0 eV  36.75 Ry    6.06 a.u.   7.84  7.84 11.21*2*pi/ulx,y,z
   ENINI  =  500.0     initial cutoff
   ENAUG  =  462.8 eV  augmentation charge cutoff
   NELM   =     60;   NELMIN=  2; NELMDL= -5     # of ELM steps 
   EDIFF  = 0.1E-05   stopping-criterion for ELM
   LREAL  =      T    real-space projection
   NLSPLINE    = F    spline interpolate recip. space projectors
   LCOMPAT=      F    compatible to vasp.4.4
   GGA_COMPAT  = T    GGA compatible to vasp.4.4-vasp.4.6
   LMAXPAW     = -100 max onsite density
   LMAXMIX     =    2 max onsite mixed and CHGCAR
   VOSKOWN=      0    Vosko Wilk Nusair interpolation
   ROPT   =   -0.00025  -0.00025  -0.00025
 Ionic relaxation
   EDIFFG = -.1E-01   stopping-criterion for IOM
   NSW    =      0    number of steps for IOM
   NBLOCK =      1;   KBLOCK =      1    inner block; outer block 
   IBRION =     -1    ionic relax: 0-MD 1-quasi-New 2-CG
   NFREE  =      0    steps in history (QN), initial steepest desc. (CG)
   ISIF   =      2    stress and relaxation
   IWAVPR =     10    prediction:  0-non 1-charg 2-wave 3-comb
   ISYM   =      2    0-nonsym 1-usesym 2-fastsym
   LCORR  =      T    Harris-Foulkes like correction to forces

   POTIM  = 0.5000    time-step for ionic-motion
   TEIN   =    0.0    initial temperature
   TEBEG  =    0.0;   TEEND  =   0.0 temperature during run
   SMASS  =  -3.00    Nose mass-parameter (am)
   estimated Nose-frequenzy (Omega)   =  0.10E-29 period in steps =****** mass=  -0.423E-27a.u.
   SCALEE = 1.0000    scale energy and forces
   NPACO  =    256;   APACO  = 16.0  distance and # of slots for P.C.
   PSTRESS=    0.0 pullay stress

  Mass of Ions in am
   POMASS =  69.72208.98 74.92
  Ionic Valenz
   ZVAL   =   3.00 15.00  5.00
  Atomic Wigner-Seitz radii
   RWIGS  =  -1.00 -1.00 -1.00
  virtual crystal weights 
   VCA    =   1.00  1.00  1.00
   NELECT =      26.0000    total number of electrons
   NUPDOWN=      -1.0000    fix difference up-down

 DOS related values:
   EMIN   =  10.00;   EMAX   =-10.00  energy-range for DOS
   EFERMI =   0.00
   ISMEAR =     1;   SIGMA  =   0.20  broadening in eV -4-tet -1-fermi 0-gaus

 Electronic relaxation 2 (details)
   IALGO  =     38    algorithm
   LDIAG  =      T    sub-space diagonalisation (order eigenvalues)
   LSUBROT=      F    optimize rotation matrix (better conditioning)
   TURBO    =      0    0=normal 1=particle mesh
   IRESTART =      0    0=no restart 2=restart with 2 vectors
   NREBOOT  =      0    no. of reboots
   NMIN     =      0    reboot dimension
   EREF     =   0.00    reference energy to select bands
   IMIX   =      4    mixing-type and parameters
     AMIX     =   0.40;   BMIX     =  1.00
     AMIX_MAG =   1.60;   BMIX_MAG =  1.00
     AMIN     =   0.10
     WC   =   100.;   INIMIX=   1;  MIXPRE=   1;  MAXMIX= -45

 Intra band minimization:
   WEIMIN = 0.0000     energy-eigenvalue tresh-hold
   EBREAK =  0.52E-08  absolut break condition
   DEPER  =   0.30     relativ break condition  

   TIME   =   0.40     timestep for ELM

  volume/ion in A,a.u.               =      28.41       191.73
  Fermi-wavevector in a.u.,A,eV,Ry     =   1.001267  1.892120 13.640326  1.002536
  Thomas-Fermi vector in A             =   2.133678
 
 Write flags
   LWAVE        =      T    write WAVECAR
   LDOWNSAMPLE  =      F    k-point downsampling of WAVECAR
   LCHARG       =      T    write CHGCAR
   LVTOT        =      F    write LOCPOT, total local potential
   LVHAR        =      F    write LOCPOT, Hartree potential only
   LELF         =      F    write electronic localiz. function (ELF)
   LORBIT       =      0    0 simple, 1 ext, 2 COOP (PROOUT), +10 PAW based schemes


 Dipole corrections
   LMONO  =      F    monopole corrections only (constant potential shift)
   LDIPOL =      F    correct potential (dipole corrections)
   IDIPOL =      0    1-x, 2-y, 3-z, 4-all directions 
   EPSILON=  1.0000000 bulk dielectric constant

 Exchange correlation treatment:
   GGA     =    --    GGA type
   LEXCH   =     8    internal setting for exchange type
   VOSKOWN=      0    Vosko Wilk Nusair interpolation
   LHFCALC =     F    Hartree Fock is set to
   LHFONE  =     F    Hartree Fock one center treatment
   AEXX    =    0.0000 exact exchange contribution

 Linear response parameters
   LEPSILON=     F    determine dielectric tensor
   LRPA    =     F    only Hartree local field effects (RPA)
   LNABLA  =     F    use nabla operator in PAW spheres
   LVEL    =     F    velocity operator in full k-point grid
   LINTERFAST=   F  fast interpolation
   KINTER  =     0    interpolate to denser k-point grid
   CSHIFT  =0.1000    complex shift for real part using Kramers Kronig
   OMEGAMAX=  -1.0    maximum frequency
   DEG_THRESHOLD= 0.2000000E-02 threshold for treating states as degnerate
   RTIME   =   -0.100 relaxation time in fs
  (WPLASMAI=    0.000 imaginary part of plasma frequency in eV, 0.658/RTIME)
   DFIELD  = 0.0000000 0.0000000 0.0000000 field for delta impulse in time
 
 Orbital magnetization related:
   ORBITALMAG=     F  switch on orbital magnetization
   LCHIMAG   =     F  perturbation theory with respect to B field
   DQ        =  0.001000  dq finite difference perturbation B field
   LLRAUG    =     F  two centre corrections for induced B field



--------------------------------------------------------------------------------------------------------


 Static calculation
 charge density and potential will be updated during run
 non collinear spin polarized calculation
 Variant of blocked Davidson
 Davidson routine will perform the subspace rotation
 perform sub-space diagonalisation
    after iterative eigenvector-optimisation
 modified Broyden-mixing scheme, WC =      100.0
 initial mixing is a Kerker type mixing with AMIX =  0.4000 and BMIX =      1.0000
 Hartree-type preconditioning will be used
 using additional bands           35
 real space projection scheme for non local part
 use partial core corrections
 calculate Harris-corrections to forces 
   (improved forces if not selfconsistent)
 use gradient corrections 
 use of overlap-Matrix (Vanderbilt PP)
 Methfessel and Paxton  Order N= 1 SIGMA  =   0.20


--------------------------------------------------------------------------------------------------------


  energy-cutoff  :      500.00
  volume of cell :      113.64
      direct lattice vectors                 reciprocal lattice vectors
     4.300140858  0.000000000  0.000000000     0.232550522  0.000000000  0.000000000
     0.000000000  4.300140858  0.000000000     0.000000000  0.232550522  0.000000000
     0.000000000  0.000000000  6.145861149     0.000000000  0.000000000  0.162711128

  length of vectors
     4.300140858  4.300140858  6.145861149     0.232550522  0.232550522  0.162711128


 
 k-points in units of 2pi/SCALE and weight: MP                                      
   0.00000000  0.00000000  0.00000000       0.013
   0.04651010  0.00000000  0.00000000       0.013
   0.09302021  0.00000000  0.00000000       0.013
  -0.09302021  0.00000000  0.00000000       0.013
  -0.04651010  0.00000000  0.00000000       0.013
   0.00000000  0.04651010  0.00000000       0.013
   0.04651010  0.04651010  0.00000000       0.013
   0.09302021  0.04651010  0.00000000       0.013
  -0.09302021  0.04651010  0.00000000       0.013
  -0.04651010  0.04651010  0.00000000       0.013
   0.00000000  0.09302021  0.00000000       0.013
   0.04651010  0.09302021  0.00000000       0.013
   0.09302021  0.09302021  0.00000000       0.013
  -0.09302021  0.09302021  0.00000000       0.013
  -0.04651010  0.09302021  0.00000000       0.013
   0.00000000 -0.09302021  0.00000000       0.013
   0.04651010 -0.09302021  0.00000000       0.013
   0.09302021 -0.09302021  0.00000000       0.013
  -0.09302021 -0.09302021  0.00000000       0.013
  -0.04651010 -0.09302021  0.00000000       0.013
   0.00000000 -0.04651010  0.00000000       0.013
   0.04651010 -0.04651010  0.00000000       0.013
   0.09302021 -0.04651010  0.00000000       0.013
  -0.09302021 -0.04651010  0.00000000       0.013
  -0.04651010 -0.04651010  0.00000000       0.013
   0.00000000  0.00000000  0.05423704       0.013
   0.04651010  0.00000000  0.05423704       0.013
   0.09302021  0.00000000  0.05423704       0.013
  -0.09302021  0.00000000  0.05423704       0.013
  -0.04651010  0.00000000  0.05423704       0.013
   0.00000000  0.04651010  0.05423704       0.013
   0.04651010  0.04651010  0.05423704       0.013
   0.09302021  0.04651010  0.05423704       0.013
  -0.09302021  0.04651010  0.05423704       0.013
  -0.04651010  0.04651010  0.05423704       0.013
   0.00000000  0.09302021  0.05423704       0.013
   0.04651010  0.09302021  0.05423704       0.013
   0.09302021  0.09302021  0.05423704       0.013
  -0.09302021  0.09302021  0.05423704       0.013
  -0.04651010  0.09302021  0.05423704       0.013
   0.00000000 -0.09302021  0.05423704       0.013
   0.04651010 -0.09302021  0.05423704       0.013
   0.09302021 -0.09302021  0.05423704       0.013
  -0.09302021 -0.09302021  0.05423704       0.013
  -0.04651010 -0.09302021  0.05423704       0.013
   0.00000000 -0.04651010  0.05423704       0.013
   0.04651010 -0.04651010  0.05423704       0.013
   0.09302021 -0.04651010  0.05423704       0.013
  -0.09302021 -0.04651010  0.05423704       0.013
  -0.04651010 -0.04651010  0.05423704       0.013
   0.00000000  0.00000000 -0.05423704       0.013
   0.04651010  0.00000000 -0.05423704       0.013
   0.09302021  0.00000000 -0.05423704       0.013
  -0.09302021  0.00000000 -0.05423704       0.013
  -0.04651010  0.00000000 -0.05423704       0.013
   0.00000000  0.04651010 -0.05423704       0.013
   0.04651010  0.04651010 -0.05423704       0.013
   0.09302021  0.04651010 -0.05423704       0.013
  -0.09302021  0.04651010 -0.05423704       0.013
  -0.04651010  0.04651010 -0.05423704       0.013
   0.00000000  0.09302021 -0.05423704       0.013
   0.04651010  0.09302021 -0.05423704       0.013
   0.09302021  0.09302021 -0.05423704       0.013
  -0.09302021  0.09302021 -0.05423704       0.013
  -0.04651010  0.09302021 -0.05423704       0.013
   0.00000000 -0.09302021 -0.05423704       0.013
   0.04651010 -0.09302021 -0.05423704       0.013
   0.09302021 -0.09302021 -0.05423704       0.013
  -0.09302021 -0.09302021 -0.05423704       0.013
  -0.04651010 -0.09302021 -0.05423704       0.013
   0.00000000 -0.04651010 -0.05423704       0.013
   0.04651010 -0.04651010 -0.05423704       0.013
   0.09302021 -0.04651010 -0.05423704       0.013
  -0.09302021 -0.04651010 -0.05423704       0.013
  -0.04651010 -0.04651010 -0.05423704       0.013
 
 k-points in reciprocal lattice and weights: MP                                      
   0.00000000  0.00000000  0.00000000       0.013
   0.20000000  0.00000000  0.00000000       0.013
   0.40000000  0.00000000  0.00000000       0.013
  -0.40000000  0.00000000  0.00000000       0.013
  -0.20000000  0.00000000  0.00000000       0.013
   0.00000000  0.20000000  0.00000000       0.013
   0.20000000  0.20000000  0.00000000       0.013
   0.40000000  0.20000000  0.00000000       0.013
  -0.40000000  0.20000000  0.00000000       0.013
  -0.20000000  0.20000000  0.00000000       0.013
   0.00000000  0.40000000  0.00000000       0.013
   0.20000000  0.40000000  0.00000000       0.013
   0.40000000  0.40000000  0.00000000       0.013
  -0.40000000  0.40000000  0.00000000       0.013
  -0.20000000  0.40000000  0.00000000       0.013
   0.00000000 -0.40000000  0.00000000       0.013
   0.20000000 -0.40000000  0.00000000       0.013
   0.40000000 -0.40000000  0.00000000       0.013
  -0.40000000 -0.40000000  0.00000000       0.013
  -0.20000000 -0.40000000  0.00000000       0.013
   0.00000000 -0.20000000  0.00000000       0.013
   0.20000000 -0.20000000  0.00000000       0.013
   0.40000000 -0.20000000  0.00000000       0.013
  -0.40000000 -0.20000000  0.00000000       0.013
  -0.20000000 -0.20000000  0.00000000       0.013
   0.00000000  0.00000000  0.33333333       0.013
   0.20000000  0.00000000  0.33333333       0.013
   0.40000000  0.00000000  0.33333333       0.013
  -0.40000000  0.00000000  0.33333333       0.013
  -0.20000000  0.00000000  0.33333333       0.013
   0.00000000  0.20000000  0.33333333       0.013
   0.20000000  0.20000000  0.33333333       0.013
   0.40000000  0.20000000  0.33333333       0.013
  -0.40000000  0.20000000  0.33333333       0.013
  -0.20000000  0.20000000  0.33333333       0.013
   0.00000000  0.40000000  0.33333333       0.013
   0.20000000  0.40000000  0.33333333       0.013
   0.40000000  0.40000000  0.33333333       0.013
  -0.40000000  0.40000000  0.33333333       0.013
  -0.20000000  0.40000000  0.33333333       0.013
   0.00000000 -0.40000000  0.33333333       0.013
   0.20000000 -0.40000000  0.33333333       0.013
   0.40000000 -0.40000000  0.33333333       0.013
  -0.40000000 -0.40000000  0.33333333       0.013
  -0.20000000 -0.40000000  0.33333333       0.013
   0.00000000 -0.20000000  0.33333333       0.013
   0.20000000 -0.20000000  0.33333333       0.013
   0.40000000 -0.20000000  0.33333333       0.013
  -0.40000000 -0.20000000  0.33333333       0.013
  -0.20000000 -0.20000000  0.33333333       0.013
   0.00000000  0.00000000 -0.33333333       0.013
   0.20000000  0.00000000 -0.33333333       0.013
   0.40000000  0.00000000 -0.33333333       0.013
  -0.40000000  0.00000000 -0.33333333       0.013
  -0.20000000  0.00000000 -0.33333333       0.013
   0.00000000  0.20000000 -0.33333333       0.013
   0.20000000  0.20000000 -0.33333333       0.013
   0.40000000  0.20000000 -0.33333333       0.013
  -0.40000000  0.20000000 -0.33333333       0.013
  -0.20000000  0.20000000 -0.33333333       0.013
   0.00000000  0.40000000 -0.33333333       0.013
   0.20000000  0.40000000 -0.33333333       0.013
   0.40000000  0.40000000 -0.33333333       0.013
  -0.40000000  0.40000000 -0.33333333       0.013
  -0.20000000  0.40000000 -0.33333333       0.013
   0.00000000 -0.40000000 -0.33333333       0.013
   0.20000000 -0.40000000 -0.33333333       0.013
   0.40000000 -0.40000000 -0.33333333       0.013
  -0.40000000 -0.40000000 -0.33333333       0.013
  -0.20000000 -0.40000000 -0.33333333       0.013
   0.00000000 -0.20000000 -0.33333333       0.013
   0.20000000 -0.20000000 -0.33333333       0.013
   0.40000000 -0.20000000 -0.33333333       0.013
  -0.40000000 -0.20000000 -0.33333333       0.013
  -0.20000000 -0.20000000 -0.33333333       0.013
 
 position of ions in fractional coordinates (direct lattice) 
   0.50000000  0.00000000  0.72573602
   0.00000000  0.50000000  0.27426400
   0.00000000  0.00000000  0.00000000
   0.50000000  0.50000000  0.50000000
 
 position of ions in cartesian coordinates  (Angst):
   2.15007043  0.00000000  4.46027279
   0.00000000  2.15007043  1.68558848
   0.00000000  0.00000000  0.00000000
   2.15007043  2.15007043  3.07293057
 
 Euler angles ALPHA=     0.0000000  BETA=     0.0000000

 transformation matrix from SAXIS to cartesian coordinates
 ---------------------------------------------------------
     1.0000000 m_x     0.0000000 m_y     0.0000000 m_z
     0.0000000 m_x     1.0000000 m_y     0.0000000 m_z
     0.0000000 m_x     0.0000000 m_y     1.0000000 m_z

 transformation matrix from cartesian coordinates to SAXIS
 ---------------------------------------------------------
     1.0000000 m_x     0.0000000 m_y     0.0000000 m_z
     0.0000000 m_x     1.0000000 m_y     0.0000000 m_z
     0.0000000 m_x     0.0000000 m_y     1.0000000 m_z




--------------------------------------------------------------------------------------------------------


 k-point  1 :   0.0000 0.0000 0.0000  plane waves:    5758
 k-point  2 :   0.2000 0.0000 0.0000  plane waves:    5780
 k-point  3 :   0.4000 0.0000 0.0000  plane waves:    5760
 k-point  4 :  -0.4000 0.0000 0.0000  plane waves:    5760
 k-point  5 :  -0.2000 0.0000 0.0000  plane waves:    5780
 k-point  6 :   0.0000 0.2000 0.0000  plane waves:    5780
 k-point  7 :   0.2000 0.2000 0.0000  plane waves:    5754
 k-point  8 :   0.4000 0.2000 0.0000  plane waves:    5778
 k-point  9 :  -0.4000 0.2000 0.0000  plane waves:    5778
 k-point 10 :  -0.2000 0.2000 0.0000  plane waves:    5754
 k-point 11 :   0.0000 0.4000 0.0000  plane waves:    5760
 k-point 12 :   0.2000 0.4000 0.0000  plane waves:    5778
 k-point 13 :   0.4000 0.4000 0.0000  plane waves:    5754
 k-point 14 :  -0.4000 0.4000 0.0000  plane waves:    5754
 k-point 15 :  -0.2000 0.4000 0.0000  plane waves:    5778
 k-point 16 :   0.0000-0.4000 0.0000  plane waves:    5760
 k-point 17 :   0.2000-0.4000 0.0000  plane waves:    5778
 k-point 18 :   0.4000-0.4000 0.0000  plane waves:    5754
 k-point 19 :  -0.4000-0.4000 0.0000  plane waves:    5754
 k-point 20 :  -0.2000-0.4000 0.0000  plane waves:    5778
 k-point 21 :   0.0000-0.2000 0.0000  plane waves:    5780
 k-point 22 :   0.2000-0.2000 0.0000  plane waves:    5754
 k-point 23 :   0.4000-0.2000 0.0000  plane waves:    5778
 k-point 24 :  -0.4000-0.2000 0.0000  plane waves:    5778
 k-point 25 :  -0.2000-0.2000 0.0000  plane waves:    5754
 k-point 26 :   0.0000 0.0000 0.3333  plane waves:    5748
 k-point 27 :   0.2000 0.0000 0.3333  plane waves:    5764
 k-point 28 :   0.4000 0.0000 0.3333  plane waves:    5764
 k-point 29 :  -0.4000 0.0000 0.3333  plane waves:    5764
 k-point 30 :  -0.2000 0.0000 0.3333  plane waves:    5764
 k-point 31 :   0.0000 0.2000 0.3333  plane waves:    5764
 k-point 32 :   0.2000 0.2000 0.3333  plane waves:    5744
 k-point 33 :   0.4000 0.2000 0.3333  plane waves:    5788
 k-point 34 :  -0.4000 0.2000 0.3333  plane waves:    5788
 k-point 35 :  -0.2000 0.2000 0.3333  plane waves:    5744
 k-point 36 :   0.0000 0.4000 0.3333  plane waves:    5764
 k-point 37 :   0.2000 0.4000 0.3333  plane waves:    5788
 k-point 38 :   0.4000 0.4000 0.3333  plane waves:    5780
 k-point 39 :  -0.4000 0.4000 0.3333  plane waves:    5780
 k-point 40 :  -0.2000 0.4000 0.3333  plane waves:    5788
 k-point 41 :   0.0000-0.4000 0.3333  plane waves:    5764
 k-point 42 :   0.2000-0.4000 0.3333  plane waves:    5788
 k-point 43 :   0.4000-0.4000 0.3333  plane waves:    5780
 k-point 44 :  -0.4000-0.4000 0.3333  plane waves:    5780
 k-point 45 :  -0.2000-0.4000 0.3333  plane waves:    5788
 k-point 46 :   0.0000-0.2000 0.3333  plane waves:    5764
 k-point 47 :   0.2000-0.2000 0.3333  plane waves:    5744
 k-point 48 :   0.4000-0.2000 0.3333  plane waves:    5788
 k-point 49 :  -0.4000-0.2000 0.3333  plane waves:    5788
 k-point 50 :  -0.2000-0.2000 0.3333  plane waves:    5744
 k-point 51 :   0.0000 0.0000-0.3333  plane waves:    5748
 k-point 52 :   0.2000 0.0000-0.3333  plane waves:    5764
 k-point 53 :   0.4000 0.0000-0.3333  plane waves:    5764
 k-point 54 :  -0.4000 0.0000-0.3333  plane waves:    5764
 k-point 55 :  -0.2000 0.0000-0.3333  plane waves:    5764
 k-point 56 :   0.0000 0.2000-0.3333  plane waves:    5764
 k-point 57 :   0.2000 0.2000-0.3333  plane waves:    5744
 k-point 58 :   0.4000 0.2000-0.3333  plane waves:    5788
 k-point 59 :  -0.4000 0.2000-0.3333  plane waves:    5788
 k-point 60 :  -0.2000 0.2000-0.3333  plane waves:    5744
 k-point 61 :   0.0000 0.4000-0.3333  plane waves:    5764
 k-point 62 :   0.2000 0.4000-0.3333  plane waves:    5788
 k-point 63 :   0.4000 0.4000-0.3333  plane waves:    5780
 k-point 64 :  -0.4000 0.4000-0.3333  plane waves:    5780
 k-point 65 :  -0.2000 0.4000-0.3333  plane waves:    5788
 k-point 66 :   0.0000-0.4000-0.3333  plane waves:    5764
 k-point 67 :   0.2000-0.4000-0.3333  plane waves:    5788
 k-point 68 :   0.4000-0.4000-0.3333  plane waves:    5780
 k-point 69 :  -0.4000-0.4000-0.3333  plane waves:    5780
 k-point 70 :  -0.2000-0.4000-0.3333  plane waves:    5788
 k-point 71 :   0.0000-0.2000-0.3333  plane waves:    5764
 k-point 72 :   0.2000-0.2000-0.3333  plane waves:    5744
 k-point 73 :   0.4000-0.2000-0.3333  plane waves:    5788
 k-point 74 :  -0.4000-0.2000-0.3333  plane waves:    5788
 k-point 75 :  -0.2000-0.2000-0.3333  plane waves:    5744

 maximum and minimum number of plane-waves per node :       746      686

 maximum number of plane-waves:      5788
 maximum index in each direction: 
   IXMAX=    8   IYMAX=    8   IZMAX=   11
   IXMIN=   -8   IYMIN=   -8   IZMIN=  -11


 real space projection operators:
  total allocation   :       2109.02 KBytes
  max/ min on nodes  :        275.24        258.95


 parallel 3D FFT for wavefunctions:
    minimum data exchange during FFTs selected (reduces bandwidth)
 parallel 3D FFT for charge:
    minimum data exchange during FFTs selected (reduces bandwidth)


 total amount of memory used by VASP MPI-rank0    47136. kBytes
=======================================================================

   base      :      30000. kBytes
   nonlr-proj:        701. kBytes
   fftplans  :       1037. kBytes
   grid      :       3932. kBytes
   one-center:         62. kBytes
   wavefun   :      11404. kBytes
 
     INWAV:  cpu time    0.0001: real time    0.0003
 Broyden mixing: mesh for mixing (old mesh)
   NGX = 15   NGY = 15   NGZ = 23
  (NGX  = 64   NGY  = 64   NGZ  = 96)
  gives a total of   5175 points

 initial charge density was supplied:
 charge density of overlapping atoms calculated
 number of electron      26.0000000 magnetization       4.0000000      4.0000000      4.0000000
 keeping initial charge density in first step


--------------------------------------------------------------------------------------------------------


 Maximum index for non-local projection operator          678
 Maximum index for augmentation-charges         1186 (set IRDMAX)


--------------------------------------------------------------------------------------------------------


 First call to EWALD:  gamma=   0.366
 Maximum number of real-space cells 3x 3x 2
 Maximum number of reciprocal cells 2x 2x 3

    FEWALD:  cpu time    0.0017: real time    0.0017


--------------------------------------- Iteration      1(   1)  ---------------------------------------


    POTLOK:  cpu time    0.0776: real time    0.0838
    SETDIJ:  cpu time    0.0219: real time    0.0220
     EDDAV:  cpu time    6.6872: real time    6.7070
       DOS:  cpu time    0.0045: real time    0.0045
    --------------------------------------------
      LOOP:  cpu time    6.7911: real time    6.8173

 eigenvalue-minimisations  :  7216
 total energy-change (2. order) : 0.2091621E+03  (-0.1074160E+04)
 number of electron      26.0000000 magnetization       4.0000000      4.0000000      4.0000000
 augmentation part       26.0000000 magnetization       4.0000000      4.0000000      4.0000000

 Free energy of the ion-electron system (eV)
  ---------------------------------------------------
  alpha Z        PSCENC =        64.20128509
  Ewald energy   TEWEN  =     -1439.91766544
  -Hartree energ DENC   =      -749.41397116
  -exchange      EXHF   =         0.00000000
  -V(xc)+E(xc)   XCENC  =        -0.63881372
  PAW double counting   =      1945.46521363    -1846.94975616
  entropy T*S    EENTRO =        -0.00251939
  eigenvalues    EBANDS =       -10.70490761
  atomic energy  EATOM  =      2247.12322143
  Solvation  Ediel_sol  =         0.00000000
  ---------------------------------------------------
  free energy    TOTEN  =       209.16208666 eV

  energy without entropy =      209.16460605  energy(sigma->0) =      209.16292646


--------------------------------------------------------------------------------------------------------




--------------------------------------- Iteration      1(   2)  ---------------------------------------


     EDDAV:  cpu time    6.7999: real time    6.8168
       DOS:  cpu time    0.0066: real time    0.0066
    --------------------------------------------
      LOOP:  cpu time    6.8065: real time    6.8234

 eigenvalue-minimisations  :  7496
 total energy-change (2. order) :-0.1998273E+03  (-0.1893605E+03)
 number of electron      26.0000000 magnetization       4.0000000      4.0000000      4.0000000
 augmentation part       26.0000000 magnetization       4.0000000      4.0000000      4.0000000

 Free energy of the ion-electron system (eV)
  ---------------------------------------------------
  alpha Z        PSCENC =        64.20128509
  Ewald energy   TEWEN  =     -1439.91766544
  -Hartree energ DENC   =      -749.41397116
  -exchange      EXHF   =         0.00000000
  -V(xc)+E(xc)   XCENC  =        -0.63881372
  PAW double counting   =      1945.46521363    -1846.94975616
  entropy T*S    EENTRO =         0.00038131
  eigenvalues    EBANDS =      -210.53514005
  atomic energy  EATOM  =      2247.12322143
  Solvation  Ediel_sol  =         0.00000000
  ---------------------------------------------------
  free energy    TOTEN  =         9.33475493 eV

  energy without entropy =        9.33437362  energy(sigma->0) =        9.33462783


--------------------------------------------------------------------------------------------------------




--------------------------------------- Iteration      1(   3)  ---------------------------------------


     EDDAV:  cpu time    7.9797: real time    8.0032
       DOS:  cpu time    0.0056: real time    0.0056
    --------------------------------------------
      LOOP:  cpu time    7.9853: real time    8.0088

 eigenvalue-minimisations  :  8752
 total energy-change (2. order) :-0.2208097E+02  (-0.2161336E+02)
 number of electron      26.0000000 magnetization       4.0000000      4.0000000      4.0000000
 augmentation part       26.0000000 magnetization       4.0000000      4.0000000      4.0000000

 Free energy of the ion-electron system (eV)
  ---------------------------------------------------
  alpha Z        PSCENC =        64.20128509
  Ewald energy   TEWEN  =     -1439.91766544
  -Hartree energ DENC   =      -749.41397116
  -exchange      EXHF   =         0.00000000
  -V(xc)+E(xc)   XCENC  =        -0.63881372
  PAW double counting   =      1945.46521363    -1846.94975616
  entropy T*S    EENTRO =        -0.00302944
  eigenvalues    EBANDS =      -232.61269951
  atomic energy  EATOM  =      2247.12322143
  Solvation  Ediel_sol  =         0.00000000
  ---------------------------------------------------
  free energy    TOTEN  =       -12.74621529 eV

  energy without entropy =      -12.74318584  energy(sigma->0) =      -12.74520547


--------------------------------------------------------------------------------------------------------




--------------------------------------- Iteration      1(   4)  ---------------------------------------


     EDDAV:  cpu time    7.9292: real time    7.9523
       DOS:  cpu time    0.0060: real time    0.0060
    --------------------------------------------
      LOOP:  cpu time    7.9352: real time    7.9583

 eigenvalue-minimisations  :  8760
 total energy-change (2. order) :-0.8618074E+00  (-0.8575699E+00)
 number of electron      26.0000000 magnetization       4.0000000      4.0000000      4.0000000
 augmentation part       26.0000000 magnetization       4.0000000      4.0000000      4.0000000

 Free energy of the ion-electron system (eV)
  ---------------------------------------------------
  alpha Z        PSCENC =        64.20128509
  Ewald energy   TEWEN  =     -1439.91766544
  -Hartree energ DENC   =      -749.41397116
  -exchange      EXHF   =         0.00000000
  -V(xc)+E(xc)   XCENC  =        -0.63881372
  PAW double counting   =      1945.46521363    -1846.94975616
  entropy T*S    EENTRO =        -0.00453101
  eigenvalues    EBANDS =      -233.47300533
  atomic energy  EATOM  =      2247.12322143
  Solvation  Ediel_sol  =         0.00000000
  ---------------------------------------------------
  free energy    TOTEN  =       -13.60802268 eV

  energy without entropy =      -13.60349166  energy(sigma->0) =      -13.60651234


--------------------------------------------------------------------------------------------------------




--------------------------------------- Iteration      1(   5)  ---------------------------------------


     EDDAV:  cpu time    9.5372: real time    9.5652
       DOS:  cpu time    0.0059: real time    0.0059
    CHARGE:  cpu time    0.4073: real time    0.4083
    MIXING:  cpu time    0.0052: real time    0.0053
    --------------------------------------------
      LOOP:  cpu time    9.9557: real time    9.9848

 eigenvalue-minimisations  : 10656
 total energy-change (2. order) :-0.3724238E-01  (-0.3723609E-01)
 number of electron      26.0000008 magnetization       0.9163002      0.9162950      0.9133194
 augmentation part        3.9090446 magnetization       0.6608743      0.6618960      0.6641355

 Broyden mixing:
  rms(total) = 0.10878E+01    rms(broyden)= 0.10878E+01
  rms(prec ) = 0.11726E+01
  weight for this iteration     100.00

 Free energy of the ion-electron system (eV)
  ---------------------------------------------------
  alpha Z        PSCENC =        64.20128509
  Ewald energy   TEWEN  =     -1439.91766544
  -Hartree energ DENC   =      -749.41397116
  -exchange      EXHF   =         0.00000000
  -V(xc)+E(xc)   XCENC  =        -0.63881372
  PAW double counting   =      1945.46521363    -1846.94975616
  entropy T*S    EENTRO =        -0.00456472
  eigenvalues    EBANDS =      -233.51021400
  atomic energy  EATOM  =      2247.12322143
  Solvation  Ediel_sol  =         0.00000000
  ---------------------------------------------------
  free energy    TOTEN  =       -13.64526506 eV

  energy without entropy =      -13.64070033  energy(sigma->0) =      -13.64374348


--------------------------------------------------------------------------------------------------------




--------------------------------------- Iteration      1(   6)  ---------------------------------------


    POTLOK:  cpu time    0.0846: real time    0.0868
    SETDIJ:  cpu time    0.0216: real time    0.0217
     EDDAV:  cpu time    8.3449: real time    8.3670
       DOS:  cpu time    0.0061: real time    0.0062
    CHARGE:  cpu time    0.3600: real time    0.3608
    MIXING:  cpu time    0.0048: real time    0.0049
    --------------------------------------------
      LOOP:  cpu time    8.8221: real time    8.8473

 eigenvalue-minimisations  :  9200
 total energy-change (2. order) :-0.1668277E+01  (-0.8295716E-01)
 number of electron      26.0000008 magnetization       0.2888498      0.2888530      0.2801419
 augmentation part        3.9353961 magnetization       0.2210729      0.2213530      0.2247606

 Broyden mixing:
  rms(total) = 0.40001E+00    rms(broyden)= 0.40001E+00
  rms(prec ) = 0.46619E+00
  weight for this iteration     100.00

 eigenvalues of (default mixing * dielectric matrix)
  average eigenvalue GAMMA=   0.8145
  0.8145

 Free energy of the ion-electron system (eV)
  ---------------------------------------------------
  alpha Z        PSCENC =        64.20128509
  Ewald energy   TEWEN  =     -1439.91766544
  -Hartree energ DENC   =      -751.25704491
  -exchange      EXHF   =         0.00000000
  -V(xc)+E(xc)   XCENC  =        -1.24231488
  PAW double counting   =      2112.32973451    -2015.76030029
  entropy T*S    EENTRO =        -0.00092385
  eigenvalues    EBANDS =      -230.78953415
  atomic energy  EATOM  =      2247.12322143
  Solvation  Ediel_sol  =         0.00000000
  ---------------------------------------------------
  free energy    TOTEN  =       -15.31354250 eV

  energy without entropy =      -15.31261865  energy(sigma->0) =      -15.31323455


--------------------------------------------------------------------------------------------------------




--------------------------------------- Iteration      1(   7)  ---------------------------------------


    POTLOK:  cpu time    0.0752: real time    0.0756
    SETDIJ:  cpu time    0.0190: real time    0.0191
     EDDAV:  cpu time    7.6806: real time    7.7013
       DOS:  cpu time    0.0059: real time    0.0059
    CHARGE:  cpu time    0.4004: real time    0.4013
    MIXING:  cpu time    0.0049: real time    0.0049
    --------------------------------------------
      LOOP:  cpu time    8.1861: real time    8.2081

 eigenvalue-minimisations  :  8720
 total energy-change (2. order) :-0.2750061E+00  (-0.2312084E-01)
 number of electron      26.0000008 magnetization      -0.0613820     -0.0613960     -0.0615329
 augmentation part        3.9471086 magnetization      -0.0805804     -0.0804486     -0.0807132

 Broyden mixing:
  rms(total) = 0.17960E+00    rms(broyden)= 0.17960E+00
  rms(prec ) = 0.23657E+00
  weight for this iteration     100.00

 eigenvalues of (default mixing * dielectric matrix)
  average eigenvalue GAMMA=   0.9804
  1.2337  0.7272

 Free energy of the ion-electron system (eV)
  ---------------------------------------------------
  alpha Z        PSCENC =        64.20128509
  Ewald energy   TEWEN  =     -1439.91766544
  -Hartree energ DENC   =      -752.52521310
  -exchange      EXHF   =         0.00000000
  -V(xc)+E(xc)   XCENC  =        -1.25434635
  PAW double counting   =      2219.03661409    -2123.49993079
  entropy T*S    EENTRO =        -0.00088546
  eigenvalues    EBANDS =      -228.75162806
  atomic energy  EATOM  =      2247.12322143
  Solvation  Ediel_sol  =         0.00000000
  ---------------------------------------------------
  free energy    TOTEN  =       -15.58854860 eV

  energy without entropy =      -15.58766314  energy(sigma->0) =      -15.58825345


--------------------------------------------------------------------------------------------------------




--------------------------------------- Iteration      1(   8)  ---------------------------------------


    POTLOK:  cpu time    0.0765: real time    0.0797
    SETDIJ:  cpu time    0.0202: real time    0.0203
     EDDAV:  cpu time    8.1629: real time    8.1845
       DOS:  cpu time    0.0065: real time    0.0065
    CHARGE:  cpu time    0.3664: real time    0.3672
    MIXING:  cpu time    0.0051: real time    0.0051
    --------------------------------------------
      LOOP:  cpu time    8.6376: real time    8.6633

 eigenvalue-minimisations  :  9064
 total energy-change (2. order) :-0.1663813E-01  (-0.7407473E-02)
 number of electron      26.0000008 magnetization      -0.0597534     -0.0597639     -0.0583046
 augmentation part        3.9508634 magnetization      -0.0556462     -0.0555797     -0.0543397

 Broyden mixing:
  rms(total) = 0.80255E-01    rms(broyden)= 0.80255E-01
  rms(prec ) = 0.10677E+00
  weight for this iteration     100.00

 eigenvalues of (default mixing * dielectric matrix)
  average eigenvalue GAMMA=   1.0402
  1.5710  0.8713  0.6782

 Free energy of the ion-electron system (eV)
  ---------------------------------------------------
  alpha Z        PSCENC =        64.20128509
  Ewald energy   TEWEN  =     -1439.91766544
  -Hartree energ DENC   =      -753.69139999
  -exchange      EXHF   =         0.00000000
  -V(xc)+E(xc)   XCENC  =        -1.08779616
  PAW double counting   =      2330.08708475    -2235.44940107
  entropy T*S    EENTRO =        -0.00177227
  eigenvalues    EBANDS =      -226.86874306
  atomic energy  EATOM  =      2247.12322143
  Solvation  Ediel_sol  =         0.00000000
  ---------------------------------------------------
  free energy    TOTEN  =       -15.60518673 eV

  energy without entropy =      -15.60341446  energy(sigma->0) =      -15.60459598


--------------------------------------------------------------------------------------------------------




--------------------------------------- Iteration      1(   9)  ---------------------------------------


    POTLOK:  cpu time    0.0779: real time    0.0809
    SETDIJ:  cpu time    0.0197: real time    0.0197
     EDDAV:  cpu time    7.9089: real time    7.9300
       DOS:  cpu time    0.0050: real time    0.0050
    CHARGE:  cpu time    0.3935: real time    0.3945
    MIXING:  cpu time    0.0050: real time    0.0050
    --------------------------------------------
      LOOP:  cpu time    8.4100: real time    8.4351

 eigenvalue-minimisations  :  8600
 total energy-change (2. order) : 0.1468600E-02  (-0.1165299E-02)
 number of electron      26.0000008 magnetization      -0.0178572     -0.0178539     -0.0170233
 augmentation part        3.9539662 magnetization      -0.0107085     -0.0106935     -0.0102195

 Broyden mixing:
  rms(total) = 0.35589E-01    rms(broyden)= 0.35589E-01
  rms(prec ) = 0.44665E-01
  weight for this iteration     100.00

 eigenvalues of (default mixing * dielectric matrix)
  average eigenvalue GAMMA=   1.1532
  2.0868  1.1393  0.7645  0.6221

 Free energy of the ion-electron system (eV)
  ---------------------------------------------------
  alpha Z        PSCENC =        64.20128509
  Ewald energy   TEWEN  =     -1439.91766544
  -Hartree energ DENC   =      -754.19593714
  -exchange      EXHF   =         0.00000000
  -V(xc)+E(xc)   XCENC  =        -0.98137890
  PAW double counting   =      2387.64293555    -2293.34961762
  entropy T*S    EENTRO =        -0.00183801
  eigenvalues    EBANDS =      -226.12472309
  atomic energy  EATOM  =      2247.12322143
  Solvation  Ediel_sol  =         0.00000000
  ---------------------------------------------------
  free energy    TOTEN  =       -15.60371813 eV

  energy without entropy =      -15.60188012  energy(sigma->0) =      -15.60310546


--------------------------------------------------------------------------------------------------------




--------------------------------------- Iteration      1(  10)  ---------------------------------------


    POTLOK:  cpu time    0.0769: real time    0.0773
    SETDIJ:  cpu time    0.0217: real time    0.0217
     EDDAV:  cpu time    7.9057: real time    7.9345
       DOS:  cpu time    0.0047: real time    0.0047
    CHARGE:  cpu time    0.3788: real time    0.3798
    MIXING:  cpu time    0.0053: real time    0.0053
    --------------------------------------------
      LOOP:  cpu time    8.3930: real time    8.4232

 eigenvalue-minimisations  :  8664
 total energy-change (2. order) :-0.1551738E-02  (-0.2589054E-03)
 number of electron      26.0000008 magnetization       0.0015777      0.0015795      0.0016270
 augmentation part        3.9553108 magnetization       0.0041117      0.0041199      0.0039991

 Broyden mixing:
  rms(total) = 0.10175E-01    rms(broyden)= 0.10175E-01
  rms(prec ) = 0.15527E-01
  weight for this iteration     100.00

 eigenvalues of (default mixing * dielectric matrix)
  average eigenvalue GAMMA=   1.2048
  2.3552  1.3189  0.9824  0.7491  0.6183

 Free energy of the ion-electron system (eV)
  ---------------------------------------------------
  alpha Z        PSCENC =        64.20128509
  Ewald energy   TEWEN  =     -1439.91766544
  -Hartree energ DENC   =      -754.37582012
  -exchange      EXHF   =         0.00000000
  -V(xc)+E(xc)   XCENC  =        -0.94045711
  PAW double counting   =      2403.92014156    -2309.66649805
  entropy T*S    EENTRO =        -0.00186285
  eigenvalues    EBANDS =      -225.94761437
  atomic energy  EATOM  =      2247.12322143
  Solvation  Ediel_sol  =         0.00000000
  ---------------------------------------------------
  free energy    TOTEN  =       -15.60526987 eV

  energy without entropy =      -15.60340702  energy(sigma->0) =      -15.60464892


--------------------------------------------------------------------------------------------------------




--------------------------------------- Iteration      1(  11)  ---------------------------------------


    POTLOK:  cpu time    0.0769: real time    0.0774
    SETDIJ:  cpu time    0.0210: real time    0.0211
     EDDAV:  cpu time    8.0523: real time    8.0945
       DOS:  cpu time    0.0071: real time    0.0071
    CHARGE:  cpu time    0.3841: real time    0.3907
    MIXING:  cpu time    0.0089: real time    0.0089
    --------------------------------------------
      LOOP:  cpu time    8.5503: real time    8.5996

 eigenvalue-minimisations  :  8464
 total energy-change (2. order) :-0.6026780E-03  (-0.7814500E-04)
 number of electron      26.0000008 magnetization       0.0023701      0.0023692      0.0023026
 augmentation part        3.9559447 magnetization       0.0021965      0.0021994      0.0021012

 Broyden mixing:
  rms(total) = 0.53726E-02    rms(broyden)= 0.53726E-02
  rms(prec ) = 0.76637E-02
  weight for this iteration     100.00

 eigenvalues of (default mixing * dielectric matrix)
  average eigenvalue GAMMA=   1.2052
  2.4162  1.4843  1.0960  0.8730  0.7451  0.6163

 Free energy of the ion-electron system (eV)
  ---------------------------------------------------
  alpha Z        PSCENC =        64.20128509
  Ewald energy   TEWEN  =     -1439.91766544
  -Hartree energ DENC   =      -754.51707008
  -exchange      EXHF   =         0.00000000
  -V(xc)+E(xc)   XCENC  =        -0.92195056
  PAW double counting   =      2405.12331171    -2310.82555250
  entropy T*S    EENTRO =        -0.00182525
  eigenvalues    EBANDS =      -225.86962694
  atomic energy  EATOM  =      2247.12322143
  Solvation  Ediel_sol  =         0.00000000
  ---------------------------------------------------
  free energy    TOTEN  =       -15.60587255 eV

  energy without entropy =      -15.60404730  energy(sigma->0) =      -15.60526413


--------------------------------------------------------------------------------------------------------




--------------------------------------- Iteration      1(  12)  ---------------------------------------


    POTLOK:  cpu time    0.0784: real time    0.0815
    SETDIJ:  cpu time    0.0218: real time    0.0218
     EDDAV:  cpu time    8.0587: real time    8.0819
       DOS:  cpu time    0.0060: real time    0.0060
    CHARGE:  cpu time    0.3749: real time    0.3758
    MIXING:  cpu time    0.0055: real time    0.0055
    --------------------------------------------
      LOOP:  cpu time    8.5454: real time    8.5725

 eigenvalue-minimisations  :  9008
 total energy-change (2. order) :-0.1720747E-03  (-0.1556194E-04)
 number of electron      26.0000008 magnetization       0.0006139      0.0006142      0.0005659
 augmentation part        3.9560361 magnetization       0.0003433      0.0003450      0.0003363

 Broyden mixing:
  rms(total) = 0.24092E-02    rms(broyden)= 0.24092E-02
  rms(prec ) = 0.34029E-02
  weight for this iteration     100.00

 eigenvalues of (default mixing * dielectric matrix)
  average eigenvalue GAMMA=   1.3086
  2.6163  2.1561  1.2861  1.0077  0.7613  0.7157  0.6167

 Free energy of the ion-electron system (eV)
  ---------------------------------------------------
  alpha Z        PSCENC =        64.20128509
  Ewald energy   TEWEN  =     -1439.91766544
  -Hartree energ DENC   =      -754.64860306
  -exchange      EXHF   =         0.00000000
  -V(xc)+E(xc)   XCENC  =        -0.91259218
  PAW double counting   =      2403.41721868    -2309.08436241
  entropy T*S    EENTRO =        -0.00180556
  eigenvalues    EBANDS =      -225.78274116
  atomic energy  EATOM  =      2247.12322143
  Solvation  Ediel_sol  =         0.00000000
  ---------------------------------------------------
  free energy    TOTEN  =       -15.60604462 eV

  energy without entropy =      -15.60423907  energy(sigma->0) =      -15.60544277


--------------------------------------------------------------------------------------------------------




--------------------------------------- Iteration      1(  13)  ---------------------------------------


    POTLOK:  cpu time    0.0728: real time    0.0768
    SETDIJ:  cpu time    0.0203: real time    0.0203
     EDDAV:  cpu time    7.5390: real time    7.5555
       DOS:  cpu time    0.0052: real time    0.0052
    CHARGE:  cpu time    0.3924: real time    0.3932
    MIXING:  cpu time    0.0062: real time    0.0062
    --------------------------------------------
      LOOP:  cpu time    8.0359: real time    8.0571

 eigenvalue-minimisations  :  8520
 total energy-change (2. order) :-0.5094959E-04  (-0.4173135E-05)
 number of electron      26.0000008 magnetization      -0.0000941     -0.0000940     -0.0000994
 augmentation part        3.9560807 magnetization      -0.0001392     -0.0001378     -0.0001459

 Broyden mixing:
  rms(total) = 0.85976E-03    rms(broyden)= 0.85975E-03
  rms(prec ) = 0.12210E-02
  weight for this iteration     100.00

 eigenvalues of (default mixing * dielectric matrix)
  average eigenvalue GAMMA=   1.2989
  2.8690  2.2823  1.3501  1.0386  0.8366  0.7505  0.6233  0.6411

 Free energy of the ion-electron system (eV)
  ---------------------------------------------------
  alpha Z        PSCENC =        64.20128509
  Ewald energy   TEWEN  =     -1439.91766544
  -Hartree energ DENC   =      -754.72693106
  -exchange      EXHF   =         0.00000000
  -V(xc)+E(xc)   XCENC  =        -0.90800104
  PAW double counting   =      2402.39134953    -2308.04402258
  entropy T*S    EENTRO =        -0.00179854
  eigenvalues    EBANDS =      -225.72353295
  atomic energy  EATOM  =      2247.12322143
  Solvation  Ediel_sol  =         0.00000000
  ---------------------------------------------------
  free energy    TOTEN  =       -15.60609557 eV

  energy without entropy =      -15.60429704  energy(sigma->0) =      -15.60549606


--------------------------------------------------------------------------------------------------------




--------------------------------------- Iteration      1(  14)  ---------------------------------------


    POTLOK:  cpu time    0.0770: real time    0.0772
    SETDIJ:  cpu time    0.0237: real time    0.0238
     EDDAV:  cpu time    7.7317: real time    7.7517
       DOS:  cpu time    0.0059: real time    0.0059
    CHARGE:  cpu time    0.3528: real time    0.3539
    MIXING:  cpu time    0.0064: real time    0.0064
    --------------------------------------------
      LOOP:  cpu time    8.1976: real time    8.2188

 eigenvalue-minimisations  :  8416
 total energy-change (2. order) :-0.5775364E-05  (-0.4446028E-06)
 number of electron      26.0000008 magnetization      -0.0001168     -0.0001164     -0.0001053
 augmentation part        3.9561472 magnetization      -0.0001160     -0.0001158     -0.0001079

 Broyden mixing:
  rms(total) = 0.40435E-03    rms(broyden)= 0.40435E-03
  rms(prec ) = 0.61867E-03
  weight for this iteration     100.00

 eigenvalues of (default mixing * dielectric matrix)
  average eigenvalue GAMMA=   1.3039
  2.9293  2.3140  1.4313  1.2435  1.0239  0.7949  0.7535  0.6224  0.6224

 Free energy of the ion-electron system (eV)
  ---------------------------------------------------
  alpha Z        PSCENC =        64.20128509
  Ewald energy   TEWEN  =     -1439.91766544
  -Hartree energ DENC   =      -754.74274411
  -exchange      EXHF   =         0.00000000
  -V(xc)+E(xc)   XCENC  =        -0.90726908
  PAW double counting   =      2402.19607440    -2307.84793682
  entropy T*S    EENTRO =        -0.00179736
  eigenvalues    EBANDS =      -225.70926944
  atomic energy  EATOM  =      2247.12322143
  Solvation  Ediel_sol  =         0.00000000
  ---------------------------------------------------
  free energy    TOTEN  =       -15.60610135 eV

  energy without entropy =      -15.60430399  energy(sigma->0) =      -15.60550223


--------------------------------------------------------------------------------------------------------




--------------------------------------- Iteration      1(  15)  ---------------------------------------


    POTLOK:  cpu time    0.0744: real time    0.0748
    SETDIJ:  cpu time    0.0199: real time    0.0199
     EDDAV:  cpu time    7.3498: real time    7.3691
       DOS:  cpu time    0.0060: real time    0.0060
    CHARGE:  cpu time    0.3801: real time    0.3810
    MIXING:  cpu time    0.0066: real time    0.0066
    --------------------------------------------
      LOOP:  cpu time    7.8367: real time    7.8575

 eigenvalue-minimisations  :  7776
 total energy-change (2. order) :-0.1646026E-05  (-0.1623812E-06)
 number of electron      26.0000008 magnetization      -0.0000458     -0.0000458     -0.0000425
 augmentation part        3.9562016 magnetization      -0.0000370     -0.0000367     -0.0000315

 Broyden mixing:
  rms(total) = 0.18060E-03    rms(broyden)= 0.18060E-03
  rms(prec ) = 0.26548E-03
  weight for this iteration     100.00

 eigenvalues of (default mixing * dielectric matrix)
  average eigenvalue GAMMA=   1.3710
  3.1189  2.4450  2.1269  1.3384  1.0383  0.8941  0.7530  0.7530  0.6212  0.6212

 Free energy of the ion-electron system (eV)
  ---------------------------------------------------
  alpha Z        PSCENC =        64.20128509
  Ewald energy   TEWEN  =     -1439.91766544
  -Hartree energ DENC   =      -754.74749206
  -exchange      EXHF   =         0.00000000
  -V(xc)+E(xc)   XCENC  =        -0.90714056
  PAW double counting   =      2402.09947063    -2307.75169027
  entropy T*S    EENTRO =        -0.00179603
  eigenvalues    EBANDS =      -225.70429578
  atomic energy  EATOM  =      2247.12322143
  Solvation  Ediel_sol  =         0.00000000
  ---------------------------------------------------
  free energy    TOTEN  =       -15.60610300 eV

  energy without entropy =      -15.60430697  energy(sigma->0) =      -15.60550432


--------------------------------------------------------------------------------------------------------




--------------------------------------- Iteration      1(  16)  ---------------------------------------


    POTLOK:  cpu time    0.0782: real time    0.0814
    SETDIJ:  cpu time    0.0207: real time    0.0208
     EDDAV:  cpu time    7.1289: real time    7.1467
       DOS:  cpu time    0.0049: real time    0.0049
    --------------------------------------------
      LOOP:  cpu time    7.2327: real time    7.2537

 eigenvalue-minimisations  :  7216
 total energy-change (2. order) :-0.3402156E-06  (-0.5746679E-07)
 number of electron      26.0000008 magnetization      -0.0000458     -0.0000458     -0.0000425
 augmentation part        3.9562016 magnetization      -0.0000370     -0.0000367     -0.0000315

 Free energy of the ion-electron system (eV)
  ---------------------------------------------------
  alpha Z        PSCENC =        64.20128509
  Ewald energy   TEWEN  =     -1439.91766544
  -Hartree energ DENC   =      -754.75042804
  -exchange      EXHF   =         0.00000000
  -V(xc)+E(xc)   XCENC  =        -0.90707492
  PAW double counting   =      2402.07749782    -2307.73012214
  entropy T*S    EENTRO =        -0.00179523
  eigenvalues    EBANDS =      -225.70102189
  atomic energy  EATOM  =      2247.12322143
  Solvation  Ediel_sol  =         0.00000000
  ---------------------------------------------------
  free energy    TOTEN  =       -15.60610334 eV

  energy without entropy =      -15.60430811  energy(sigma->0) =      -15.60550493


--------------------------------------------------------------------------------------------------------




 average (electrostatic) potential at core
[...]
 pseudopotential strength for first ion, spin component:           3
 -0.000  -0.000  -0.000  -0.000  -0.000   0.000   0.000   0.000  -0.000   0.000  -0.000   0.000   0.000   0.000  -0.000   0.000
 -0.000  -0.000  -0.000  -0.000  -0.000   0.000   0.000   0.000  -0.000   0.000  -0.000   0.000   0.000   0.000  -0.000   0.000
 -0.000   0.000  -0.000   0.000  -0.000  -0.000   0.000  -0.038  -0.000   0.000  -0.000  -0.000   0.000  -0.072  -0.000   0.000
  0.000   0.000   0.000   0.000   0.000   0.038  -0.000  -0.000   0.038   0.000   0.000   0.072  -0.000  -0.000   0.072   0.000
 -0.000   0.000  -0.000   0.000  -0.000   0.000  -0.038   0.000   0.000   0.000  -0.000   0.000  -0.072   0.000   0.000   0.000
 -0.000   0.000  -0.000   0.000  -0.000  -0.000   0.000  -0.072  -0.000   0.000  -0.000  -0.000   0.000  -0.138  -0.000   0.000
  0.000   0.000   0.000   0.000   0.000   0.072  -0.000  -0.000   0.072   0.000   0.000   0.138  -0.000  -0.000   0.138   0.000
 -0.000   0.000  -0.000   0.000  -0.000   0.000  -0.072   0.000   0.000   0.000  -0.000   0.000  -0.138   0.000   0.000   0.000
 -0.000   0.000  -0.000   0.000  -0.000   0.000  -0.000  -0.000   0.000   0.000  -0.000   0.000  -0.000  -0.000   0.000   0.000
  0.000   0.000   0.000   0.000   0.000   0.000  -0.000   0.000  -0.000  -0.000   0.000   0.000  -0.000   0.000  -0.000  -0.000
  0.000   0.000   0.000   0.000  -0.000  -0.000   0.000   0.000   0.000  -0.000  -0.000  -0.000   0.000   0.000   0.000  -0.000
 -0.000   0.000  -0.000   0.000  -0.000  -0.000  -0.000   0.000   0.000   0.000  -0.000  -0.000  -0.000   0.000   0.000   0.000
  0.000   0.000   0.000   0.000   0.000  -0.000   0.000   0.000  -0.000   0.000   0.000  -0.000   0.000   0.000  -0.000   0.000
 pseudopotential strength for first ion, spin component:           4
  5.697   0.000   6.817   0.000   0.000   0.000  -0.004   0.000  -0.000   0.000   0.000   0.000  -0.008   0.000  -0.000   0.000
  6.817   0.000   8.149   0.000   0.000   0.000  -0.005   0.000  -0.000   0.000   0.000   0.000  -0.009   0.000  -0.000   0.000
  0.000   0.000   0.000   0.000   1.277   0.000  -0.000   0.000   0.000  -0.038   2.132   0.000  -0.000   0.000   0.000  -0.072
 -0.004   0.000  -0.005   0.000  -0.000   0.000   1.278   0.000  -0.000   0.000  -0.000   0.000   2.135   0.000  -0.000   0.000
 -0.000   0.000  -0.000   0.000   0.000   0.038  -0.000   0.000   1.279   0.000   0.000   0.072  -0.000   0.000   2.136   0.000
  0.000   0.000   0.000   0.000   2.132   0.000  -0.000   0.000   0.000  -0.072   3.577   0.000  -0.000   0.000   0.000  -0.138
 -0.008   0.000  -0.009   0.000  -0.000   0.000   2.135   0.000  -0.000   0.000  -0.000   0.000   3.582   0.000  -0.000   0.000
 -0.000   0.000  -0.000   0.000   0.000   0.072  -0.000   0.000   2.136   0.000   0.000   0.138  -0.000   0.000   3.585   0.000
  0.000   0.000   0.000   0.000  -0.000   0.000   0.000   0.000   0.000   0.000  -0.000   0.000   0.000   0.000   0.000   0.000
 -0.000   0.000  -0.000   0.000  -0.003   0.000   0.000   0.000   0.000   0.000  -0.005   0.000   0.000   0.000   0.000   0.000
  0.001   0.000   0.001   0.000  -0.000   0.000  -0.000   0.000  -0.000   0.000  -0.000   0.000  -0.001   0.000  -0.000   0.000
 -0.000   0.000  -0.000   0.000   0.000   0.000  -0.000   0.000   0.002   0.000   0.000   0.000  -0.000   0.000   0.004   0.000
  0.004   0.000   0.005   0.000  -0.000   0.000   0.002   0.000  -0.000   0.000  -0.000   0.000   0.004   0.000  -0.000   0.000
 total augmentation occupancy for first ion, spin component:           1
  4.106  -1.518  -0.000  -0.014   0.000   0.000  -0.004  -0.000  -0.000   0.000   0.000   0.000  -0.030
 -1.518   0.763   0.000   0.056  -0.000  -0.000  -0.005   0.000   0.000  -0.000   0.000  -0.000   0.016
 -0.000   0.000   2.115   0.000  -0.000  -0.458  -0.000   0.000  -0.000  -0.214  -0.000  -0.000   0.000
 -0.014   0.056   0.000   1.972   0.000  -0.000  -0.415  -0.000  -0.000  -0.000   0.030   0.000   0.202
  0.000  -0.000  -0.000   0.000   1.877   0.000  -0.000  -0.376   0.000  -0.000   0.000   0.190   0.000
  0.000  -0.000  -0.458  -0.000   0.000   0.107   0.000  -0.000   0.000   0.048   0.000   0.000  -0.000
 -0.004  -0.005  -0.000  -0.415  -0.000   0.000   0.096   0.000   0.000   0.000  -0.006  -0.000  -0.043
 -0.000   0.000   0.000  -0.000  -0.376  -0.000   0.000   0.085  -0.000   0.000  -0.000  -0.039  -0.000
 -0.000   0.000  -0.000  -0.000   0.000   0.000   0.000  -0.000   0.011   0.000  -0.000   0.000  -0.000
  0.000  -0.000  -0.214  -0.000  -0.000   0.048   0.000   0.000   0.000   0.037   0.000   0.000  -0.000
  0.000   0.000  -0.000   0.030   0.000   0.000  -0.006  -0.000  -0.000   0.000   0.011   0.000   0.004
  0.000  -0.000  -0.000   0.000   0.190   0.000  -0.000  -0.039   0.000   0.000   0.000   0.034  -0.000
 -0.030   0.016   0.000   0.202   0.000  -0.000  -0.043  -0.000  -0.000  -0.000   0.004  -0.000   0.035
 total augmentation occupancy for first ion, spin component:           2
 -0.000   0.000   0.000   0.000   0.000  -0.000  -0.000  -0.000   0.000  -0.000  -0.000   0.000  -0.000
  0.000  -0.000  -0.000  -0.000  -0.000   0.000   0.000   0.000   0.000   0.000   0.000  -0.000  -0.000
  0.000  -0.000  -0.000  -0.000  -0.000   0.000   0.000   0.000  -0.000  -0.000   0.000   0.000  -0.000
  0.000  -0.000  -0.000  -0.000   0.000   0.000   0.000  -0.000   0.000   0.000  -0.000   0.000   0.000
  0.000  -0.000  -0.000   0.000  -0.000   0.000  -0.000   0.000  -0.000   0.000   0.000   0.000  -0.000
 -0.000   0.000   0.000   0.000   0.000  -0.000  -0.000  -0.000   0.000  -0.000   0.000  -0.000   0.000
 -0.000   0.000   0.000   0.000  -0.000  -0.000  -0.000   0.000  -0.000  -0.000   0.000  -0.000  -0.000
 -0.000   0.000   0.000  -0.000   0.000  -0.000   0.000  -0.000   0.000  -0.000  -0.000  -0.000  -0.000
  0.000   0.000  -0.000   0.000  -0.000   0.000  -0.000   0.000  -0.000   0.000   0.000  -0.000   0.000
 -0.000   0.000  -0.000   0.000   0.000  -0.000  -0.000  -0.000   0.000   0.000  -0.000  -0.000   0.000
 -0.000   0.000   0.000  -0.000   0.000   0.000   0.000  -0.000   0.000  -0.000  -0.000   0.000   0.000
  0.000  -0.000   0.000   0.000   0.000  -0.000  -0.000  -0.000  -0.000  -0.000   0.000   0.000  -0.000
 -0.000  -0.000  -0.000   0.000  -0.000   0.000  -0.000  -0.000   0.000   0.000   0.000  -0.000   0.000
 total augmentation occupancy for first ion, spin component:           3
 -0.000   0.000   0.000   0.000  -0.000  -0.000  -0.000   0.000  -0.000  -0.000  -0.000   0.000  -0.000
  0.000  -0.000  -0.000  -0.000   0.000   0.000   0.000  -0.000   0.000   0.000   0.000  -0.000  -0.000
  0.000  -0.000  -0.000   0.000  -0.000   0.000  -0.000   0.000  -0.000  -0.000  -0.000  -0.000   0.000
  0.000  -0.000   0.000  -0.000   0.000  -0.000   0.000  -0.000  -0.000  -0.000  -0.000   0.000   0.000
 -0.000   0.000  -0.000   0.000  -0.000   0.000  -0.000   0.000   0.000  -0.000   0.000   0.000  -0.000
 -0.000   0.000   0.000  -0.000   0.000  -0.000   0.000  -0.000   0.000  -0.000   0.000   0.000  -0.000
 -0.000   0.000  -0.000   0.000  -0.000   0.000  -0.000   0.000   0.000   0.000   0.000  -0.000  -0.000
  0.000  -0.000   0.000  -0.000   0.000  -0.000   0.000  -0.000  -0.000   0.000  -0.000  -0.000   0.000
 -0.000   0.000  -0.000  -0.000   0.000   0.000   0.000  -0.000  -0.000   0.000  -0.000   0.000  -0.000
 -0.000   0.000  -0.000  -0.000  -0.000  -0.000   0.000   0.000   0.000   0.000  -0.000  -0.000  -0.000
 -0.000   0.000  -0.000  -0.000   0.000   0.000   0.000  -0.000  -0.000  -0.000  -0.000   0.000  -0.000
  0.000  -0.000  -0.000   0.000   0.000   0.000  -0.000  -0.000   0.000  -0.000   0.000   0.000  -0.000
 -0.000  -0.000   0.000   0.000  -0.000  -0.000  -0.000   0.000  -0.000  -0.000  -0.000  -0.000   0.000
 total augmentation occupancy for first ion, spin component:           4
 -0.000   0.000  -0.000   0.000  -0.000   0.000  -0.000   0.000   0.000   0.000   0.000  -0.000  -0.000
  0.000  -0.000   0.000  -0.000   0.000  -0.000   0.000  -0.000  -0.000  -0.000  -0.000   0.000  -0.000
 -0.000   0.000  -0.000   0.000   0.000   0.000  -0.000  -0.000   0.000  -0.000   0.000   0.000   0.000
  0.000  -0.000   0.000  -0.000  -0.000  -0.000   0.000   0.000   0.000  -0.000  -0.000  -0.000   0.000
 -0.000   0.000   0.000  -0.000  -0.000  -0.000   0.000   0.000  -0.000   0.000  -0.000   0.000   0.000
  0.000  -0.000   0.000  -0.000  -0.000  -0.000   0.000   0.000   0.000  -0.000  -0.000  -0.000  -0.000
 -0.000   0.000  -0.000   0.000   0.000   0.000  -0.000  -0.000  -0.000   0.000   0.000   0.000  -0.000
  0.000  -0.000  -0.000   0.000   0.000   0.000  -0.000  -0.000   0.000   0.000   0.000  -0.000  -0.000
  0.000  -0.000   0.000   0.000  -0.000   0.000  -0.000   0.000  -0.000  -0.000  -0.000  -0.000   0.000
  0.000  -0.000  -0.000  -0.000   0.000  -0.000   0.000   0.000  -0.000   0.000   0.000   0.000  -0.000
  0.000  -0.000   0.000  -0.000  -0.000  -0.000   0.000   0.000  -0.000   0.000  -0.000  -0.000   0.000
 -0.000   0.000   0.000  -0.000   0.000  -0.000   0.000  -0.000  -0.000   0.000  -0.000   0.000   0.000
 -0.000  -0.000   0.000   0.000   0.000  -0.000  -0.000  -0.000   0.000  -0.000   0.000   0.000   0.000


------------------------ aborting loop because EDIFF is reached ----------------------------------------


    CHARGE:  cpu time    0.3760: real time    0.3770
    FORLOC:  cpu time    0.0028: real time    0.0028
    FORNL :  cpu time    1.1291: real time    1.1319
    STRESS:  cpu time    3.3695: real time    3.3800
    FORCOR:  cpu time    0.0746: real time    0.0748
    FORHAR:  cpu time    0.0126: real time    0.0127
    MIXING:  cpu time    0.0087: real time    0.0088
    OFIELD:  cpu time    0.0001: real time    0.0001

  FORCE on cell =-STRESS in cart. coord.  units (eV):
  Direction    XX          YY          ZZ          XY          YZ          ZX
  --------------------------------------------------------------------------------------
  Alpha Z    64.20129    64.20129    64.20129
  Ewald    -439.74121  -439.74123  -560.43629     0.00000     0.00000    -0.00000
  Hartree   290.94673   290.94673   172.85878     0.00000    -0.00000     0.00000
  E(xc)    -113.08953  -113.08952  -113.02567     0.00000    -0.00000    -0.00000
  Local    -321.62638  -321.62635   -82.33057    -0.00000    -0.00000    -0.00000
  n-local   155.83704   155.83703   155.75987    -0.00000     0.00000     0.00001
  augment   138.69475   138.69475   138.74168    -0.00000     0.00000     0.00000
  Kinetic   225.23224   225.23224   224.39840     0.00000    -0.00000    -0.00000
  Fock        0.00000     0.00000     0.00000     0.00000     0.00000     0.00000
  -------------------------------------------------------------------------------------
  Total       0.45493     0.45492     0.16749    -0.00000     0.00000     0.00000
  in kB       6.41361     6.41361     2.36134    -0.00002     0.00006     0.00006
  external pressure =        5.06 kB  Pullay stress =        0.00 kB


 VOLUME and BASIS-vectors are now :
 -----------------------------------------------------------------------------
  energy-cutoff  :      500.00
  volume of cell :      113.64
      direct lattice vectors                 reciprocal lattice vectors
     4.300140858  0.000000000  0.000000000     0.232550522  0.000000000  0.000000000
     0.000000000  4.300140858  0.000000000     0.000000000  0.232550522  0.000000000
     0.000000000  0.000000000  6.145861149     0.000000000  0.000000000  0.162711128

  length of vectors
     4.300140858  4.300140858  6.145861149     0.232550522  0.232550522  0.162711128


 FORCES acting on ions
    electron-ion (+dipol)            ewald-force                    non-local-force                 convergence-correction
 -----------------------------------------------------------------------------------------------
   0.190E-06 -.174E-05 0.476E+02   0.261E-14 -.178E-15 -.473E+02   -.221E-06 0.664E-06 -.395E+00   -.280E-06 0.935E-06 0.146E-03
   0.137E-05 -.257E-07 -.476E+02   -.168E-14 -.547E-14 0.473E+02   -.584E-06 0.187E-06 0.395E+00   -.791E-06 0.169E-06 -.146E-03
   0.221E-06 0.642E-06 -.267E-05   -.341E-14 0.631E-14 0.425E-05   -.289E-04 0.248E-04 0.136E-05   0.389E-04 -.380E-04 -.135E-05
   -.702E-05 0.848E-05 -.316E-06   0.139E-14 0.780E-16 0.515E-06   0.332E-05 -.390E-05 -.772E-07   0.397E-05 -.469E-05 0.121E-06
 -----------------------------------------------------------------------------------------------
   -.524E-05 0.736E-05 0.152E-05   -.109E-14 0.740E-15 -.355E-14   -.264E-04 0.217E-04 0.945E-06   0.418E-04 -.416E-04 -.113E-05
 
 
 POSITION                                       TOTAL-FORCE (eV/Angst)
 -----------------------------------------------------------------------------------
      2.15007      0.00000      4.46027        -0.000003      0.000003     -0.079972
      0.00000      2.15007      1.68559        -0.000003      0.000003      0.079971
      0.00000      0.00000      0.00000         0.000008     -0.000009      0.000001
      2.15007      2.15007      3.07293        -0.000002      0.000003     -0.000000
 -----------------------------------------------------------------------------------
    total drift:                                0.000010     -0.000013      0.000001


--------------------------------------------------------------------------------------------------------



  FREE ENERGIE OF THE ION-ELECTRON SYSTEM (eV)
  ---------------------------------------------------
  free  energy   TOTEN  =       -15.60610334 eV

  energy  without entropy=      -15.60430811  energy(sigma->0) =      -15.60550493
 


--------------------------------------------------------------------------------------------------------


    POTLOK:  cpu time    0.1009: real time    0.1029


--------------------------------------------------------------------------------------------------------


 writing wavefunctions
     LOOP+:  cpu time  139.2055: real time  141.3196
    4ORBIT:  cpu time    0.0000: real time    0.0000

 Spin-Orbit-Coupling matrix elements

 Ion:    1  E_soc:     -0.0070382
 l=   1
     0.0000000    -0.0009503    -0.0013219
    -0.0009503     0.0000000    -0.0013018
    -0.0013219    -0.0013018     0.0000000
 l=   2
     0.0000000    -0.0000007     0.0000000     0.0000056    -0.0000017
    -0.0000007     0.0000000    -0.0000070     0.0000194     0.0000064
     0.0000000    -0.0000070     0.0000000     0.0000167     0.0000000
     0.0000056     0.0000194     0.0000167     0.0000000     0.0000162
    -0.0000017     0.0000064     0.0000000     0.0000162     0.0000000
 l=   3
     0.0000000     0.0000000     0.0000000     0.0000000     0.0000000     0.0000000     0.0000000
     0.0000000     0.0000000     0.0000000     0.0000000     0.0000000     0.0000000     0.0000000
     0.0000000     0.0000000     0.0000000     0.0000000     0.0000000     0.0000000     0.0000000
     0.0000000     0.0000000     0.0000000     0.0000000     0.0000000     0.0000000     0.0000000
     0.0000000     0.0000000     0.0000000     0.0000000     0.0000000     0.0000000     0.0000000
     0.0000000     0.0000000     0.0000000     0.0000000     0.0000000     0.0000000     0.0000000
     0.0000000     0.0000000     0.0000000     0.0000000     0.0000000     0.0000000     0.0000000

 Ion:    2  E_soc:     -0.0070382
 l=   1
     0.0000000    -0.0013018    -0.0013219
    -0.0013018     0.0000000    -0.0009503
    -0.0013219    -0.0009503     0.0000000
 l=   2
     0.0000000     0.0000056     0.0000000    -0.0000007    -0.0000017
     0.0000056     0.0000000     0.0000167     0.0000194     0.0000162
     0.0000000     0.0000167     0.0000000    -0.0000070     0.0000000
    -0.0000007     0.0000194    -0.0000070     0.0000000     0.0000064
    -0.0000017     0.0000162     0.0000000     0.0000064     0.0000000
 l=   3
     0.0000000     0.0000000     0.0000000     0.0000000     0.0000000     0.0000000     0.0000000
     0.0000000     0.0000000     0.0000000     0.0000000     0.0000000     0.0000000     0.0000000
     0.0000000     0.0000000     0.0000000     0.0000000     0.0000000     0.0000000     0.0000000
     0.0000000     0.0000000     0.0000000     0.0000000     0.0000000     0.0000000     0.0000000
     0.0000000     0.0000000     0.0000000     0.0000000     0.0000000     0.0000000     0.0000000
     0.0000000     0.0000000     0.0000000     0.0000000     0.0000000     0.0000000     0.0000000
     0.0000000     0.0000000     0.0000000     0.0000000     0.0000000     0.0000000     0.0000000

 Ion:    3  E_soc:     -1.5949895
 l=   1
     0.0000000    -0.1954028    -0.2050520
    -0.1954028     0.0000000    -0.1954028
    -0.2050520    -0.1954028     0.0000000
 l=   2
     0.0000000    -0.0133441     0.0000000    -0.0133441    -0.0533974
    -0.0133441     0.0000000    -0.0401287    -0.0138574    -0.0137183
     0.0000000    -0.0401287     0.0000000    -0.0401287     0.0000000
    -0.0133441    -0.0138574    -0.0401287     0.0000000    -0.0137183
    -0.0533974    -0.0137183     0.0000000    -0.0137183     0.0000000
 l=   3
     0.0000000     0.0000000     0.0000000     0.0000000     0.0000000     0.0000000     0.0000000
     0.0000000     0.0000000     0.0000000     0.0000000     0.0000000     0.0000000     0.0000000
     0.0000000     0.0000000     0.0000000     0.0000000     0.0000000     0.0000000     0.0000000
     0.0000000     0.0000000     0.0000000     0.0000000     0.0000000     0.0000000     0.0000000
     0.0000000     0.0000000     0.0000000     0.0000000     0.0000000     0.0000000     0.0000000
     0.0000000     0.0000000     0.0000000     0.0000000     0.0000000     0.0000000     0.0000000
     0.0000000     0.0000000     0.0000000     0.0000000     0.0000000     0.0000000     0.0000000

 Ion:    4  E_soc:     -0.0293282
 l=   1
     0.0000000    -0.0047984    -0.0050393
    -0.0047984     0.0000000    -0.0047984
    -0.0050393    -0.0047984     0.0000000
 l=   2
     0.0000000    -0.0000012     0.0000000    -0.0000012    -0.0000094
    -0.0000012     0.0000000    -0.0000079     0.0000016    -0.0000010
     0.0000000    -0.0000079     0.0000000    -0.0000079     0.0000000
    -0.0000012     0.0000016    -0.0000079     0.0000000    -0.0000010
    -0.0000094    -0.0000010     0.0000000    -0.0000010     0.0000000
 l=   3
     0.0000000     0.0000000     0.0000000     0.0000000     0.0000000     0.0000000     0.0000000
     0.0000000     0.0000000     0.0000000     0.0000000     0.0000000     0.0000000     0.0000000
     0.0000000     0.0000000     0.0000000     0.0000000     0.0000000     0.0000000     0.0000000
     0.0000000     0.0000000     0.0000000     0.0000000     0.0000000     0.0000000     0.0000000
     0.0000000     0.0000000     0.0000000     0.0000000     0.0000000     0.0000000     0.0000000
     0.0000000     0.0000000     0.0000000     0.0000000     0.0000000     0.0000000     0.0000000
     0.0000000     0.0000000     0.0000000     0.0000000     0.0000000     0.0000000     0.0000000

 total amount of memory used by VASP MPI-rank0    47136. kBytes
=======================================================================

   base      :      30000. kBytes
   nonlr-proj:        701. kBytes
   fftplans  :       1037. kBytes
   grid      :       3932. kBytes
   one-center:         62. kBytes
   wavefun   :      11404. kBytes
 
  
  
 General timing and accounting informations for this job:
 ========================================================
  
                  Total CPU time used (sec):      145.328
                            User time (sec):      144.164
                          System time (sec):        1.164
                         Elapsed time (sec):      147.917
  
                   Maximum memory used (kb):       85112.
                   Average memory used (kb):           0.
  
                          Minor page faults:        35289
                          Major page faults:            0
                 Voluntary context switches:         1843
