 running on   32 total cores
 distrk:  each k-point on   32 cores,    1 groups
 distr:  one band on    8 cores,    4 groups
 using from now: INCAR     
 vasp.5.4.4.18Apr17-6-g9f103f2a35 (build Dec 22 2021 20:15:33) complex          
  
 POSCAR found type information on POSCAR  Ga Bi As
 POSCAR found :  3 types and       4 ions
 scaLAPACK will be used

 ----------------------------------------------------------------------------- 
|                                                                             |
|  ADVICE TO THIS USER RUNNING 'VASP/VAMP'   (HEAR YOUR MASTER'S VOICE ...):  |
|                                                                             |
|      You have a (more or less) 'small supercell' and for smaller cells      |
|      it is recommended  to use the reciprocal-space projection scheme!      |
|      The real space optimization is not  efficient for small cells and it   |
|      is also less accurate ...                                              |
|      Therefore set LREAL=.FALSE. in the  INCAR file                         |
|                                                                             |
 ----------------------------------------------------------------------------- 

 LDA part: xc-table for Pade appr. of Perdew
 POSCAR, INCAR and KPOINTS ok, starting setup
 FFT: planning ...
 WAVECAR not read
 entering main loop
       N       E                     dE             d eps       ncg     rms          rms(c)
DAV:   1     0.209162086664E+03    0.20916E+03   -0.10742E+04  7216   0.962E+02
DAV:   2     0.933475492968E+01   -0.19983E+03   -0.18936E+03  7496   0.262E+02
DAV:   3    -0.127462152854E+02   -0.22081E+02   -0.21613E+02  8752   0.101E+02
DAV:   4    -0.136080226758E+02   -0.86181E+00   -0.85757E+00  8760   0.220E+01
DAV:   5    -0.136452650551E+02   -0.37242E-01   -0.37236E-01 10656   0.431E+00    0.109E+01
DAV:   6    -0.153135424996E+02   -0.16683E+01   -0.82957E-01  9200   0.113E+01    0.400E+00
DAV:   7    -0.155885486027E+02   -0.27501E+00   -0.23121E-01  8720   0.364E+00    0.180E+00
DAV:   8    -0.156051867333E+02   -0.16638E-01   -0.74075E-02  9064   0.138E+00    0.803E-01
DAV:   9    -0.156037181338E+02    0.14686E-02   -0.11653E-02  8600   0.120E+00    0.356E-01
DAV:  10    -0.156052698720E+02   -0.15517E-02   -0.25891E-03  8664   0.565E-01    0.102E-01
DAV:  11    -0.156058725500E+02   -0.60268E-03   -0.78145E-04  8464   0.183E-01    0.537E-02
DAV:  12    -0.156060446248E+02   -0.17207E-03   -0.15562E-04  9008   0.670E-02    0.241E-02
DAV:  13    -0.156060955744E+02   -0.50950E-04   -0.41731E-05  8520   0.354E-02    0.860E-03
DAV:  14    -0.156061013497E+02   -0.57754E-05   -0.44460E-06  8416   0.113E-02    0.404E-03
DAV:  15    -0.156061029958E+02   -0.16460E-05   -0.16238E-06  7776   0.718E-03    0.181E-03
DAV:  16    -0.156061033360E+02   -0.34022E-06   -0.57467E-07  7216   0.403E-03
   1 F= -.15606103E+02 E0= -.15605505E+02  d E =-.179523E-02  mag=    -0.0000    -0.0000    -0.0000
 writing wavefunctions
