<?xml version="1.0" encoding="ISO-8859-1"?>
<modeling>
 <generator>
  <i name="program" type="string">vasp </i>
  <i name="version" type="string">5.4.4.18Apr17-6-g9f103f2a35  </i>
  <i name="subversion" type="string">(build Dec 22 2021 20:15:33) complex            parallel </i>
  <i name="platform" type="string">LinuxIFC </i>
  <i name="date" type="string">2019 05 17 </i>
  <i name="time" type="string">18:14:59 </i>
 </generator>
 <incar>
  <i type="string" name="SYSTEM"> Ga2BiAs</i>
  <i type="string" name="PREC">accurate</i>
  <i type="logical" name="LSORBIT"> T  </i>
  <v name="SAXIS">      0.00000000      0.00000000      1.00000000</v>
  <i type="int" name="ISPIN">     2</i>
  <i type="int" name="ICHARG">     2</i>
  <i name="EDIFF">      0.00000100</i>
  <i name="EDIFFG">     -0.01000000</i>
  <i name="ENCUT">    500.00000000</i>
  <i type="int" name="NBANDS">    48</i>
  <i type="string" name="LREAL"> Auto</i>
  <i type="logical" name="LWAVE"> T  </i>
  <i type="logical" name="LCHARG"> T  </i>
  <v type="int" name="KPOINT_BSE">    -1     0     0     0</v>
 </incar>
 <structure name="primitive_cell" >
  <crystal>
   <varray name="basis" >
    <v>       4.30014086       0.00000000       0.00000000 </v>
    <v>       0.00000000       4.30014086       0.00000000 </v>
    <v>       0.00000000       0.00000000       6.14586115 </v>
   </varray>
   <i name="volume">    113.64441771 </i>
   <varray name="rec_basis" >
    <v>       0.23255052       0.00000000       0.00000000 </v>
    <v>       0.00000000       0.23255052       0.00000000 </v>
    <v>       0.00000000       0.00000000       0.16271113 </v>
   </varray>
  </crystal>
  <varray name="positions" >
   <v>      -0.50000000       0.00000000      -0.27426398 </v>
   <v>      -0.50000000      -0.50000000      -0.50000000 </v>
   <v>       0.00000000       0.00000000       0.00000000 </v>
   <v>       0.00000000      -0.50000000       0.27426400 </v>
  </varray>
 </structure>
 <varray name="primitive_index" >
  <v type="int" >        1 </v>
  <v type="int" >        4 </v>
  <v type="int" >        3 </v>
  <v type="int" >        2 </v>
 </varray>
 <kpoints>
  <generation param="Gamma">
   <v type="int" name="divisions">       5        5        3 </v>
   <v name="usershift">      0.00000000       0.00000000       0.00000000 </v>
   <v name="genvec1">      0.20000000       0.00000000       0.00000000 </v>
   <v name="genvec2">      0.00000000       0.20000000       0.00000000 </v>
   <v name="genvec3">      0.00000000       0.00000000       0.33333333 </v>
   <v name="shift">      0.00000000       0.00000000       0.00000000 </v>
  </generation>
  <varray name="kpointlist" >
   <v>       0.00000000       0.00000000       0.00000000 </v>
   <v>       0.20000000       0.00000000       0.00000000 </v>
   <v>       0.40000000       0.00000000       0.00000000 </v>
   <v>      -0.40000000       0.00000000       0.00000000 </v>
   <v>      -0.20000000       0.00000000       0.00000000 </v>
   <v>       0.00000000       0.20000000       0.00000000 </v>
   <v>       0.20000000       0.20000000       0.00000000 </v>
   <v>       0.40000000       0.20000000       0.00000000 </v>
   <v>      -0.40000000       0.20000000       0.00000000 </v>
   <v>      -0.20000000       0.20000000       0.00000000 </v>
   <v>       0.00000000       0.40000000       0.00000000 </v>
   <v>       0.20000000       0.40000000       0.00000000 </v>
   <v>       0.40000000       0.40000000       0.00000000 </v>
   <v>      -0.40000000       0.40000000       0.00000000 </v>
   <v>      -0.20000000       0.40000000       0.00000000 </v>
   <v>       0.00000000      -0.40000000       0.00000000 </v>
   <v>       0.20000000      -0.40000000       0.00000000 </v>
   <v>       0.40000000      -0.40000000       0.00000000 </v>
   <v>      -0.40000000      -0.40000000       0.00000000 </v>
   <v>      -0.20000000      -0.40000000       0.00000000 </v>
   <v>       0.00000000      -0.20000000       0.00000000 </v>
   <v>       0.20000000      -0.20000000       0.00000000 </v>
   <v>       0.40000000      -0.20000000       0.00000000 </v>
   <v>      -0.40000000      -0.20000000       0.00000000 </v>
   <v>      -0.20000000      -0.20000000       0.00000000 </v>
   <v>       0.00000000       0.00000000       0.33333333 </v>
   <v>       0.20000000       0.00000000       0.33333333 </v>
   <v>       0.40000000       0.00000000       0.33333333 </v>
   <v>      -0.40000000       0.00000000       0.33333333 </v>
   <v>      -0.20000000       0.00000000       0.33333333 </v>
   <v>       0.00000000       0.20000000       0.33333333 </v>
   <v>       0.20000000       0.20000000       0.33333333 </v>
   <v>       0.40000000       0.20000000       0.33333333 </v>
   <v>      -0.40000000       0.20000000       0.33333333 </v>
   <v>      -0.20000000       0.20000000       0.33333333 </v>
   <v>       0.00000000       0.40000000       0.33333333 </v>
   <v>       0.20000000       0.40000000       0.33333333 </v>
   <v>       0.40000000       0.40000000       0.33333333 </v>
   <v>      -0.40000000       0.40000000       0.33333333 </v>
   <v>      -0.20000000       0.40000000       0.33333333 </v>
   <v>       0.00000000      -0.40000000       0.33333333 </v>
   <v>       0.20000000      -0.40000000       0.33333333 </v>
   <v>       0.40000000      -0.40000000       0.33333333 </v>
   <v>      -0.40000000      -0.40000000       0.33333333 </v>
   <v>      -0.20000000      -0.40000000       0.33333333 </v>
   <v>       0.00000000      -0.20000000       0.33333333 </v>
   <v>       0.20000000      -0.20000000       0.33333333 </v>
   <v>       0.40000000      -0.20000000       0.33333333 </v>
   <v>      -0.40000000      -0.20000000       0.33333333 </v>
   <v>      -0.20000000      -0.20000000       0.33333333 </v>
   <v>       0.00000000       0.00000000      -0.33333333 </v>
   <v>       0.20000000       0.00000000      -0.33333333 </v>
   <v>       0.40000000       0.00000000      -0.33333333 </v>
   <v>      -0.40000000       0.00000000      -0.33333333 </v>
   <v>      -0.20000000       0.00000000      -0.33333333 </v>
   <v>       0.00000000       0.20000000      -0.33333333 </v>
   <v>       0.20000000       0.20000000      -0.33333333 </v>
   <v>       0.40000000       0.20000000      -0.33333333 </v>
   <v>      -0.40000000       0.20000000      -0.33333333 </v>
   <v>      -0.20000000       0.20000000      -0.33333333 </v>
   <v>       0.00000000       0.40000000      -0.33333333 </v>
   <v>       0.20000000       0.40000000      -0.33333333 </v>
   <v>       0.40000000       0.40000000      -0.33333333 </v>
   <v>      -0.40000000       0.40000000      -0.33333333 </v>
   <v>      -0.20000000       0.40000000      -0.33333333 </v>
   <v>       0.00000000      -0.40000000      -0.33333333 </v>
   <v>       0.20000000      -0.40000000      -0.33333333 </v>
   <v>       0.40000000      -0.40000000      -0.33333333 </v>
   <v>      -0.40000000      -0.40000000      -0.33333333 </v>
   <v>      -0.20000000      -0.40000000      -0.33333333 </v>
   <v>       0.00000000      -0.20000000      -0.33333333 </v>
   <v>       0.20000000      -0.20000000      -0.33333333 </v>
   <v>       0.40000000      -0.20000000      -0.33333333 </v>
   <v>      -0.40000000      -0.20000000      -0.33333333 </v>
   <v>      -0.20000000      -0.20000000      -0.33333333 </v>
  </varray>
  <varray name="weights" >
   <v>       0.01333333 </v>
   <v>       0.01333333 </v>
   <v>       0.01333333 </v>
   <v>       0.01333333 </v>
   <v>       0.01333333 </v>
   <v>       0.01333333 </v>
   <v>       0.01333333 </v>
   <v>       0.01333333 </v>
   <v>       0.01333333 </v>
   <v>       0.01333333 </v>
   <v>       0.01333333 </v>
   <v>       0.01333333 </v>
   <v>       0.01333333 </v>
   <v>       0.01333333 </v>
   <v>       0.01333333 </v>
   <v>       0.01333333 </v>
   <v>       0.01333333 </v>
   <v>       0.01333333 </v>
   <v>       0.01333333 </v>
   <v>       0.01333333 </v>
   <v>       0.01333333 </v>
   <v>       0.01333333 </v>
   <v>       0.01333333 </v>
   <v>       0.01333333 </v>
   <v>       0.01333333 </v>
   <v>       0.01333333 </v>
   <v>       0.01333333 </v>
   <v>       0.01333333 </v>
   <v>       0.01333333 </v>
   <v>       0.01333333 </v>
   <v>       0.01333333 </v>
   <v>       0.01333333 </v>
   <v>       0.01333333 </v>
   <v>       0.01333333 </v>
   <v>       0.01333333 </v>
   <v>       0.01333333 </v>
   <v>       0.01333333 </v>
   <v>       0.01333333 </v>
   <v>       0.01333333 </v>
   <v>       0.01333333 </v>
   <v>       0.01333333 </v>
   <v>       0.01333333 </v>
   <v>       0.01333333 </v>
   <v>       0.01333333 </v>
   <v>       0.01333333 </v>
   <v>       0.01333333 </v>
   <v>       0.01333333 </v>
   <v>       0.01333333 </v>
   <v>       0.01333333 </v>
   <v>       0.01333333 </v>
   <v>       0.01333333 </v>
   <v>       0.01333333 </v>
   <v>       0.01333333 </v>
   <v>       0.01333333 </v>
   <v>       0.01333333 </v>
   <v>       0.01333333 </v>
   <v>       0.01333333 </v>
   <v>       0.01333333 </v>
   <v>       0.01333333 </v>
   <v>       0.01333333 </v>
   <v>       0.01333333 </v>
   <v>       0.01333333 </v>
   <v>       0.01333333 </v>
   <v>       0.01333333 </v>
   <v>       0.01333333 </v>
   <v>       0.01333333 </v>
   <v>       0.01333333 </v>
   <v>       0.01333333 </v>
   <v>       0.01333333 </v>
   <v>       0.01333333 </v>
   <v>       0.01333333 </v>
   <v>       0.01333333 </v>
   <v>       0.01333333 </v>
   <v>       0.01333333 </v>
   <v>       0.01333333 </v>
  </varray>
 </kpoints>
 <parameters>
  <separator name="general" >
   <i type="string" name="SYSTEM">Ga2BiAs</i>
   <i type="logical" name="LCOMPAT"> F  </i>
  </separator>
  <separator name="electronic" >
   <i type="string" name="PREC">accura</i>
   <i name="ENMAX">    500.00000000</i>
   <i name="ENAUG">    462.75800000</i>
   <i name="EDIFF">      0.00000100</i>
   <i type="int" name="IALGO">    38</i>
   <i type="int" name="IWAVPR">    10</i>
   <i type="int" name="NBANDS">    48</i>
   <i name="NELECT">     26.00000000</i>
   <i type="int" name="TURBO">     0</i>
   <i type="int" name="IRESTART">     0</i>
   <i type="int" name="NREBOOT">     0</i>
   <i type="int" name="NMIN">     0</i>
   <i name="EREF">      0.00000000</i>
   <separator name="electronic smearing" >
    <i type="int" name="ISMEAR">     1</i>
    <i name="SIGMA">      0.20000000</i>
    <i name="KSPACING">      0.50000000</i>
    <i type="logical" name="KGAMMA"> T  </i>
   </separator>
   <separator name="electronic projectors" >
    <i type="logical" name="LREAL"> T  </i>
    <v name="ROPT">     -0.00025000     -0.00025000     -0.00025000</v>
    <i type="int" name="LMAXPAW">  -100</i>
    <i type="int" name="LMAXMIX">     2</i>
    <i type="logical" name="NLSPLINE"> F  </i>
   </separator>
   <separator name="electronic startup" >
    <i type="int" name="ISTART">     0</i>
    <i type="int" name="ICHARG">     2</i>
    <i type="int" name="INIWAV">     1</i>
   </separator>
   <separator name="electronic spin" >
    <i type="int" name="ISPIN">     1</i>
    <i type="logical" name="LNONCOLLINEAR"> T  </i>
    <v name="MAGMOM">      1.00000000      1.00000000      1.00000000      1.00000000      1.00000000      1.00000000      1.00000000      1.00000000      1.00000000      1.00000000      1.00000000      1.00000000</v>
    <i name="NUPDOWN">     -1.00000000</i>
    <i type="logical" name="LSORBIT"> T  </i>
    <v name="SAXIS">      0.00000000      0.00000000      1.00000000</v>
    <i type="logical" name="LSPIRAL"> F  </i>
    <v name="QSPIRAL">      0.00000000      0.00000000      0.00000000</v>
    <i type="logical" name="LZEROZ"> F  </i>
   </separator>
   <separator name="electronic exchange-correlation" >
    <i type="logical" name="LASPH"> F  </i>
    <i type="logical" name="LMETAGGA"> F  </i>
   </separator>
   <separator name="electronic convergence" >
    <i type="int" name="NELM">    60</i>
    <i type="int" name="NELMDL">    -5</i>
    <i type="int" name="NELMIN">     2</i>
    <i name="ENINI">    500.00000000</i>
    <separator name="electronic convergence detail" >
     <i type="logical" name="LDIAG"> T  </i>
     <i type="logical" name="LSUBROT"> F  </i>
     <i name="WEIMIN">      0.00000000</i>
     <i name="EBREAK">      0.00000001</i>
     <i name="DEPER">      0.30000000</i>
     <i type="int" name="NRMM">     4</i>
     <i name="TIME">      0.40000000</i>
    </separator>
   </separator>
   <separator name="electronic mixer" >
    <i name="AMIX">      0.40000000</i>
    <i name="BMIX">      1.00000000</i>
    <i name="AMIN">      0.10000000</i>
    <i name="AMIX_MAG">      1.60000000</i>
    <i name="BMIX_MAG">      1.00000000</i>
    <separator name="electronic mixer details" >
     <i type="int" name="IMIX">     4</i>
     <i type="logical" name="MIXFIRST"> F  </i>
     <i type="int" name="MAXMIX">   -45</i>
     <i name="WC">    100.00000000</i>
     <i type="int" name="INIMIX">     1</i>
     <i type="int" name="MIXPRE">     1</i>
     <i type="int" name="MREMOVE">     5</i>
    </separator>
   </separator>
   <separator name="electronic dipolcorrection" >
    <i type="logical" name="LDIPOL"> F  </i>
    <i type="logical" name="LMONO"> F  </i>
    <i type="int" name="IDIPOL">     0</i>
    <i name="EPSILON">      1.00000000</i>
    <v name="DIPOL">   -100.00000000   -100.00000000   -100.00000000</v>
    <i name="EFIELD">      0.00000000</i>
   </separator>
  </separator>
  <separator name="grids" >
   <i type="int" name="NGX">    32</i>
   <i type="int" name="NGY">    32</i>
   <i type="int" name="NGZ">    48</i>
   <i type="int" name="NGXF">    64</i>
   <i type="int" name="NGYF">    64</i>
   <i type="int" name="NGZF">    96</i>
   <i type="logical" name="ADDGRID"> F  </i>
  </separator>
  <separator name="ionic" >
   <i type="int" name="NSW">     0</i>
   <i type="int" name="IBRION">    -1</i>
   <i type="int" name="MDALGO">     0</i>
   <i type="int" name="ISIF">     2</i>
   <i name="PSTRESS">      0.00000000</i>
   <i name="EDIFFG">     -0.01000000</i>
   <i type="int" name="NFREE">     0</i>
   <i name="POTIM">      0.50000000</i>
   <i name="SMASS">     -3.00000000</i>
   <i name="SCALEE">      1.00000000</i>
  </separator>
  <separator name="ionic md" >
   <i name="TEBEG">      0.00010000</i>
   <i name="TEEND">      0.00010000</i>
   <i type="int" name="NBLOCK">     1</i>
   <i type="int" name="KBLOCK">     1</i>
   <i type="int" name="NPACO">   256</i>
   <i name="APACO">     16.00000000</i>
  </separator>
  <separator name="symmetry" >
   <i type="int" name="ISYM">     2</i>
   <i name="SYMPREC">      0.00001000</i>
  </separator>
  <separator name="dos" >
   <i type="int" name="LORBIT">     0</i>
   <v name="RWIGS">     -1.00000000     -1.00000000     -1.00000000</v>
   <i type="int" name="NEDOS">   301</i>
   <i name="EMIN">     10.00000000</i>
   <i name="EMAX">    -10.00000000</i>
   <i name="EFERMI">      0.00000000</i>
  </separator>
  <separator name="writing" >
   <i type="int" name="NWRITE">     2</i>
   <i type="logical" name="LWAVE"> T  </i>
   <i type="logical" name="LDOWNSAMPLE"> F  </i>
   <i type="logical" name="LCHARG"> T  </i>
   <i type="logical" name="LPARD"> F  </i>
   <i type="logical" name="LVTOT"> F  </i>
   <i type="logical" name="LVHAR"> F  </i>
   <i type="logical" name="LELF"> F  </i>
   <i type="logical" name="LOPTICS"> F  </i>
   <v name="STM">      0.00000000      0.00000000      0.00000000      0.00000000      0.00000000      0.00000000      0.00000000</v>
  </separator>
  <separator name="performance" >
   <i type="int" name="NPAR">     4</i>
   <i type="int" name="NSIM">     4</i>
   <i type="int" name="NBLK">    -1</i>
   <i type="logical" name="LPLANE"> T  </i>
   <i type="logical" name="LSCALAPACK"> T  </i>
   <i type="logical" name="LSCAAWARE"> F  </i>
   <i type="logical" name="LSCALU"> F  </i>
   <i type="logical" name="LASYNC"> F  </i>
   <i type="logical" name="LORBITALREAL"> F  </i>
  </separator>
  <separator name="miscellaneous" >
   <i type="int" name="IDIOT">     3</i>
   <i type="int" name="ISPECIAL">     0</i>
   <i type="logical" name="LMUSIC"> F  </i>
   <v name="POMASS">     69.72300000    208.98000000     74.92200000</v>
   <v name="DARWINR">      0.00000000      0.00000000      0.00000000</v>
   <v name="DARWINV">      1.00000000      1.00000000      1.00000000</v>
   <i type="logical" name="LCORR"> T  </i>
  </separator>
  <i type="logical" name="GGA_COMPAT"> T  </i>
  <i type="logical" name="LBERRY"> F  </i>
  <i type="int" name="ICORELEVEL">     0</i>
  <i type="logical" name="LDAU"> F  </i>
  <i type="int" name="I_CONSTRAINED_M">     0</i>
  <separator name="electronic exchange-correlation" >
   <i type="string" name="GGA">--</i>
   <i type="int" name="VOSKOWN">     0</i>
   <i type="logical" name="LHFCALC"> F  </i>
   <i type="string" name="PRECFOCK"></i>
   <i type="logical" name="LSYMGRAD"> F  </i>
   <i type="logical" name="LHFONE"> F  </i>
   <i type="logical" name="LRHFCALC"> F  </i>
   <i type="logical" name="LTHOMAS"> F  </i>
   <i type="logical" name="LMODELHF"> F  </i>
   <i name="ENCUT4O">     -1.00000000</i>
   <i type="int" name="EXXOEP">     0</i>
   <i type="int" name="FOURORBIT">     0</i>
   <i name="AEXX">      0.00000000</i>
   <i name="HFALPHA">      0.00000000</i>
   <i name="MCALPHA">      0.00000000</i>
   <i name="ALDAX">      1.00000000</i>
   <i name="AGGAX">      1.00000000</i>
   <i name="ALDAC">      1.00000000</i>
   <i name="AGGAC">      1.00000000</i>
   <i type="int" name="NKREDX">     1</i>
   <i type="int" name="NKREDY">     1</i>
   <i type="int" name="NKREDZ">     1</i>
   <i type="logical" name="SHIFTRED"> F  </i>
   <i type="logical" name="ODDONLY"> F  </i>
   <i type="logical" name="EVENONLY"> F  </i>
   <i type="int" name="LMAXFOCK">     0</i>
   <i type="int" name="NMAXFOCKAE">     0</i>
   <i type="logical" name="LFOCKAEDFT"> F  </i>
   <i name="HFSCREEN">      0.00000000</i>
   <i name="HFSCREENC">      0.00000000</i>
   <i type="int" name="NBANDSGWLOW">     0</i>
  </separator>
  <separator name="vdW DFT" >
   <i type="logical" name="LUSE_VDW"> F  </i>
   <i name="Zab_VDW">     -0.84910000</i>
   <i name="PARAM1">      0.12340000</i>
   <i name="PARAM2">      1.00000000</i>
   <i name="PARAM3">      0.00000000</i>
  </separator>
  <separator name="model GW" >
   <i type="int" name="MODEL_GW">     0</i>
   <i name="MODEL_EPS0">     17.04666266</i>
   <i name="MODEL_ALPHA">      1.00000000</i>
  </separator>
  <separator name="linear response parameters" >
   <i type="logical" name="LEPSILON"> F  </i>
   <i type="logical" name="LRPA"> F  </i>
   <i type="logical" name="LNABLA"> F  </i>
   <i type="logical" name="LVEL"> F  </i>
   <i type="int" name="KINTER">     0</i>
   <i name="CSHIFT">      0.10000000</i>
   <i name="OMEGAMAX">     -1.00000000</i>
   <i name="DEG_THRESHOLD">      0.00200000</i>
   <i name="RTIME">     -0.10000000</i>
   <i name="WPLASMAI">      0.00000000</i>
   <v name="DFIELD">      0.00000000      0.00000000      0.00000000</v>
   <v name="WPLASMA">      0.00000000      0.00000000      0.00000000      0.00000000      0.00000000      0.00000000      0.00000000      0.00000000      0.00000000</v>
  </separator>
  <separator name="orbital magnetization" >
   <i type="logical" name="NUCIND"> F  </i>
   <v name="MAGPOS">      0.00000000      0.00000000      0.00000000</v>
   <i type="logical" name="LNICSALL"> T  </i>
   <i type="logical" name="ORBITALMAG"> F  </i>
   <i type="logical" name="LMAGBLOCH"> F  </i>
   <i type="logical" name="LCHIMAG"> F  </i>
   <i type="logical" name="LGAUGE"> T  </i>
   <i type="int" name="MAGATOM">     0</i>
   <v name="MAGDIPOL">      0.00000000      0.00000000      0.00000000</v>
   <v name="AVECCONST">      0.00000000      0.00000000      0.00000000</v>
  </separator>
  <separator name="response functions" >
   <i type="logical" name="LADDER"> F  </i>
   <i type="logical" name="LRPAFORCE"> F  </i>
   <i type="logical" name="LFXC"> F  </i>
   <i type="logical" name="LHARTREE"> T  </i>
   <i type="int" name="IBSE">     0</i>
   <v type="int" name="KPOINT">    -1     0     0     0</v>
   <i type="logical" name="LTCTE"> F  </i>
   <i type="logical" name="LTETE"> F  </i>
   <i type="logical" name="LTRIPLET"> F  </i>
   <i type="logical" name="LFXCEPS"> F  </i>
   <i type="logical" name="LFXHEG"> F  </i>
   <i type="int" name="NATURALO">     2</i>
   <i type="logical" name="L2ORDER"> F  </i>
   <i type="logical" name="LMP2LT"> F  </i>
   <i type="logical" name="LUSEW"> F  </i>
   <i name="ENCUTGW">     -2.00000000</i>
   <i name="ENCUTGWSOFT">     -2.00000000</i>
   <i name="ENCUTLF">     -1.00000000</i>
   <i type="int" name="LMAXMP2">    -1</i>
   <i name="SCISSOR">      0.00000000</i>
   <i type="int" name="NOMEGA">     0</i>
   <i type="int" name="NOMEGAR">     0</i>
   <i type="int" name="NBANDSGW">    -1</i>
   <i type="int" name="NBANDSO">    -1</i>
   <i type="int" name="NBANDSV">    -1</i>
   <i type="int" name="NELM">     1</i>
   <i type="int" name="NELMHF">     1</i>
   <i type="int" name="DIM">     3</i>
   <i type="int" name="ANTIRES">     0</i>
   <i name="OMEGAMAX">    -30.00000000</i>
   <i name="OMEGAMIN">    -30.00000000</i>
   <i name="OMEGATL">   -200.00000000</i>
   <i type="int" name="OMEGAGRID">   140</i>
   <i name="CSHIFT">     -0.10000000</i>
   <i type="logical" name="SELFENERGY"> F  </i>
   <i type="logical" name="LSPECTRAL"> F  </i>
   <i type="logical" name="LSPECTRALGW"> F  </i>
   <i type="logical" name="LSINGLES"> F  </i>
   <i type="logical" name="LFERMIGW"> F  </i>
   <i type="logical" name="ODDONLYGW"> F  </i>
   <i type="logical" name="EVENONLYGW"> F  </i>
   <i type="int" name="NKREDLFX">     1</i>
   <i type="int" name="NKREDLFY">     1</i>
   <i type="int" name="NKREDLFZ">     1</i>
   <i type="int" name="MAXMEM">  2800</i>
   <i type="int" name="TELESCOPE">     0</i>
   <i type="int" name="TAUPAR">     1</i>
   <i type="int" name="OMEGAPAR">    -1</i>
   <i name="LAMBDA">      1.00000000</i>
  </separator>
  <separator name="External order field" >
   <i name="OFIELD_KAPPA">      0.00000000</i>
   <v name="OFIELD_K">      0.00000000      0.00000000      0.00000000</v>
   <i name="OFIELD_Q6_NEAR">      0.00000000</i>
   <i name="OFIELD_Q6_FAR">      0.00000000</i>
   <i name="OFIELD_A">      0.00000000</i>
  </separator>
 </parameters>
 <atominfo>
  <atoms>       4 </atoms>
  <types>       3 </types>
  <array name="atoms" >
   <dimension dim="1">ion</dimension>
   <field type="string">element</field>
   <field type="int">atomtype</field>
   <set>
    <rc><c>Ga</c><c>   1</c></rc>
    <rc><c>Ga</c><c>   1</c></rc>
    <rc><c>Bi</c><c>   2</c></rc>
    <rc><c>As</c><c>   3</c></rc>
   </set>
  </array>
  <array name="atomtypes" >
   <dimension dim="1">type</dimension>
   <field type="int">atomspertype</field>
   <field type="string">element</field>
   <field>mass</field>
   <field>valence</field>
   <field type="string">pseudopotential</field>
   <set>
    <rc><c>   2</c><c>Ga</c><c>     69.72300000</c><c>      3.00000000</c><c>  PAW_PBE Ga 08Apr2002                  </c></rc>
    <rc><c>   1</c><c>Bi</c><c>    208.98000000</c><c>     15.00000000</c><c>  PAW_PBE Bi_d 06Sep2000                </c></rc>
    <rc><c>   1</c><c>As</c><c>     74.92200000</c><c>      5.00000000</c><c>  PAW_PBE As 22Sep2009                  </c></rc>
   </set>
  </array>
 </atominfo>
 <structure name="initialpos" >
  <crystal>
   <varray name="basis" >
    <v>       4.30014086       0.00000000       0.00000000 </v>
    <v>       0.00000000       4.30014086       0.00000000 </v>
    <v>       0.00000000       0.00000000       6.14586115 </v>
   </varray>
   <i name="volume">    113.64441771 </i>
   <varray name="rec_basis" >
    <v>       0.23255052       0.00000000       0.00000000 </v>
    <v>       0.00000000       0.23255052       0.00000000 </v>
    <v>       0.00000000       0.00000000       0.16271113 </v>
   </varray>
  </crystal>
  <varray name="positions" >
   <v>       0.50000000       0.00000000       0.72573602 </v>
   <v>       0.00000000       0.50000000       0.27426400 </v>
   <v>       0.00000000       0.00000000       0.00000000 </v>
   <v>       0.50000000       0.50000000       0.50000000 </v>
  </varray>
 </structure>
 <calculation>
  <scstep>
   <time name="dav">    6.69    6.71</time>
   <time name="total">    6.79    6.82</time>
   <energy>
    <i name="alphaZ">     64.20128509 </i>
    <i name="ewald">  -1439.91766544 </i>
    <i name="hartreedc">   -749.41397116 </i>
    <i name="XCdc">     -0.63881372 </i>
    <i name="pawpsdc">   1945.46521363 </i>
    <i name="pawaedc">  -1846.94975616 </i>
    <i name="eentropy">     -0.00251939 </i>
    <i name="bandstr">    -10.70490761 </i>
    <i name="atom">   2247.12322143 </i>
    <i name="e_fr_energy">    209.16208666 </i>
    <i name="e_wo_entrp">    209.16460605 </i>
    <i name="e_0_energy">    209.16292646 </i>
   </energy>
  </scstep>
  <scstep>
   <time name="dav">    6.80    6.82</time>
   <time name="total">    6.81    6.82</time>
   <energy>
    <i name="e_fr_energy">      9.33475493 </i>
    <i name="e_wo_entrp">      9.33437362 </i>
    <i name="e_0_energy">      9.33462783 </i>
   </energy>
  </scstep>
  <scstep>
   <time name="dav">    7.98    8.00</time>
   <time name="total">    7.99    8.01</time>
   <energy>
    <i name="e_fr_energy">    -12.74621529 </i>
    <i name="e_wo_entrp">    -12.74318584 </i>
    <i name="e_0_energy">    -12.74520547 </i>
   </energy>
  </scstep>
  <scstep>
   <time name="dav">    7.93    7.95</time>
   <time name="total">    7.94    7.96</time>
   <energy>
    <i name="e_fr_energy">    -13.60802268 </i>
    <i name="e_wo_entrp">    -13.60349166 </i>
    <i name="e_0_energy">    -13.60651234 </i>
   </energy>
  </scstep>
  <scstep>
   <time name="dav">    9.54    9.57</time>
   <time name="total">    9.96    9.98</time>
   <energy>
    <i name="e_fr_energy">    -13.64526506 </i>
    <i name="e_wo_entrp">    -13.64070033 </i>
    <i name="e_0_energy">    -13.64374348 </i>
   </energy>
  </scstep>
  <scstep>
   <time name="dav">    8.34    8.37</time>
   <time name="total">    8.82    8.85</time>
   <energy>
    <i name="e_fr_energy">    -15.31354250 </i>
    <i name="e_wo_entrp">    -15.31261865 </i>
    <i name="e_0_energy">    -15.31323455 </i>
   </energy>
  </scstep>
  <scstep>
   <time name="dav">    7.68    7.70</time>
   <time name="total">    8.19    8.21</time>
   <energy>
    <i name="e_fr_energy">    -15.58854860 </i>
    <i name="e_wo_entrp">    -15.58766314 </i>
    <i name="e_0_energy">    -15.58825345 </i>
   </energy>
  </scstep>
  <scstep>
   <time name="dav">    8.16    8.18</time>
   <time name="total">    8.64    8.66</time>
   <energy>
    <i name="e_fr_energy">    -15.60518673 </i>
    <i name="e_wo_entrp">    -15.60341446 </i>
    <i name="e_0_energy">    -15.60459598 </i>
   </energy>
  </scstep>
  <scstep>
   <time name="dav">    7.91    7.93</time>
   <time name="total">    8.41    8.44</time>
   <energy>
    <i name="e_fr_energy">    -15.60371813 </i>
    <i name="e_wo_entrp">    -15.60188012 </i>
    <i name="e_0_energy">    -15.60310546 </i>
   </energy>
  </scstep>
  <scstep>
   <time name="dav">    7.91    7.93</time>
   <time name="total">    8.39    8.42</time>
   <energy>
    <i name="e_fr_energy">    -15.60526987 </i>
    <i name="e_wo_entrp">    -15.60340702 </i>
    <i name="e_0_energy">    -15.60464892 </i>
   </energy>
  </scstep>
  <scstep>
   <time name="dav">    8.05    8.09</time>
   <time name="total">    8.55    8.60</time>
   <energy>
    <i name="e_fr_energy">    -15.60587255 </i>
    <i name="e_wo_entrp">    -15.60404730 </i>
    <i name="e_0_energy">    -15.60526413 </i>
   </energy>
  </scstep>
  <scstep>
   <time name="dav">    8.06    8.08</time>
   <time name="total">    8.55    8.57</time>
   <energy>
    <i name="e_fr_energy">    -15.60604462 </i>
    <i name="e_wo_entrp">    -15.60423907 </i>
    <i name="e_0_energy">    -15.60544277 </i>
   </energy>
  </scstep>
  <scstep>
   <time name="dav">    7.54    7.56</time>
   <time name="total">    8.04    8.06</time>
   <energy>
    <i name="e_fr_energy">    -15.60609557 </i>
    <i name="e_wo_entrp">    -15.60429704 </i>
    <i name="e_0_energy">    -15.60549606 </i>
   </energy>
  </scstep>
  <scstep>
   <time name="dav">    7.73    7.75</time>
   <time name="total">    8.20    8.22</time>
   <energy>
    <i name="e_fr_energy">    -15.60610135 </i>
    <i name="e_wo_entrp">    -15.60430399 </i>
    <i name="e_0_energy">    -15.60550223 </i>
   </energy>
  </scstep>
  <scstep>
   <time name="dav">    7.35    7.37</time>
   <time name="total">    7.84    7.86</time>
   <energy>
    <i name="e_fr_energy">    -15.60610300 </i>
    <i name="e_wo_entrp">    -15.60430697 </i>
    <i name="e_0_energy">    -15.60550432 </i>
   </energy>
  </scstep>
  <scstep>
   <time name="dav">    7.13    7.15</time>
   <time name="total">    7.23    7.25</time>
   <energy>
    <i name="alphaZ">     64.20128509 </i>
    <i name="ewald">  -1439.91766544 </i>
    <i name="hartreedc">   -754.75042804 </i>
    <i name="XCdc">     -0.90707492 </i>
    <i name="pawpsdc">   2402.07749782 </i>
    <i name="pawaedc">  -2307.73012214 </i>
    <i name="eentropy">     -0.00179523 </i>
    <i name="bandstr">   -225.70102189 </i>
    <i name="atom">   2247.12322143 </i>
    <i name="e_fr_energy">    -15.60610334 </i>
    <i name="e_wo_entrp">    -15.60430811 </i>
    <i name="e_0_energy">    -15.60550493 </i>
   </energy>
  </scstep>
  <structure>
   <crystal>
    <varray name="basis" >
     <v>       4.30014086       0.00000000       0.00000000 </v>
     <v>       0.00000000       4.30014086       0.00000000 </v>
     <v>       0.00000000       0.00000000       6.14586115 </v>
    </varray>
    <i name="volume">    113.64441771 </i>
    <varray name="rec_basis" >
     <v>       0.23255052       0.00000000       0.00000000 </v>
     <v>       0.00000000       0.23255052       0.00000000 </v>
     <v>       0.00000000       0.00000000       0.16271113 </v>
    </varray>
   </crystal>
   <varray name="positions" >
    <v>       0.50000000       0.00000000       0.72573602 </v>
    <v>       0.00000000       0.50000000       0.27426400 </v>
    <v>       0.00000000       0.00000000       0.00000000 </v>
    <v>       0.50000000       0.50000000       0.50000000 </v>
   </varray>
  </structure>
  <varray name="forces" >
   <v>      -0.00000287       0.00000299      -0.07997200 </v>
   <v>      -0.00000257       0.00000346       0.07997083 </v>
   <v>       0.00000773      -0.00000948       0.00000125 </v>
   <v>      -0.00000228       0.00000302      -0.00000009 </v>
  </varray>
  <varray name="stress" >
   <v>       6.41361293      -0.00002434       0.00005548 </v>
   <v>      -0.00002435       6.41360566       0.00006084 </v>
   <v>       0.00005744       0.00006223       2.36134390 </v>
  </varray>
  <energy>
   <i name="e_fr_energy">    -15.60610334 </i>
   <i name="e_wo_entrp">    -15.60550493 </i>
   <i name="e_0_energy">     -0.00179523 </i>
  </energy>
  <time name="totalsc">  139.21  141.32</time>
  <eigenvalues>
   <array>
    <dimension dim="1">band</dimension>
    <dimension dim="2">kpoint</dimension>
    <dimension dim="3">spin</dimension>
    <field>eigene</field>
    <field>occ</field>
    <set>
     <set comment="spin 1">
      <set comment="kpoint 1">
       <r>  -20.9031    1.0000 </r>
       <r>  -20.9031    1.0000 </r>
       <r>  -20.8971    1.0000 </r>
       <r>  -20.8971    1.0000 </r>
       <r>  -17.9583    1.0000 </r>
       <r>  -17.9583    1.0000 </r>
       <r>  -17.9415    1.0000 </r>
       <r>  -17.9415    1.0000 </r>
       <r>  -17.9291    1.0000 </r>
       <r>  -17.9291    1.0000 </r>
       <r>   -9.1449    1.0000 </r>
       <r>   -9.1449    1.0000 </r>
       <r>   -7.3909    1.0000 </r>
       <r>   -7.3909    1.0000 </r>
       <r>   -3.5562    1.0000 </r>
       <r>   -3.5562    1.0000 </r>
       <r>    0.2844    1.0000 </r>
       <r>    0.2844    1.0000 </r>
       <r>    0.5737    1.0000 </r>
       <r>    0.5737    1.0000 </r>
       <r>    1.8570    1.0000 </r>
       <r>    1.8570    1.0000 </r>
       <r>    2.1728    1.0000 </r>
       <r>    2.1728    1.0000 </r>
       <r>    3.3267    0.1433 </r>
       <r>    3.3267    0.1433 </r>
       <r>    3.6285   -0.0084 </r>
       <r>    3.6285   -0.0084 </r>
       <r>    4.1756   -0.0000 </r>
       <r>    4.1757   -0.0000 </r>
       <r>    4.3942   -0.0000 </r>
       <r>    4.3942   -0.0000 </r>
       <r>    6.0617   -0.0000 </r>
       <r>    6.0617   -0.0000 </r>
       <r>    6.2775   -0.0000 </r>
       <r>    6.2775   -0.0000 </r>
       <r>    6.4172   -0.0000 </r>
       <r>    6.4172   -0.0000 </r>
       <r>    8.8975    0.0000 </r>
       <r>    8.8976    0.0000 </r>
       <r>   11.1512    0.0000 </r>
       <r>   11.1513    0.0000 </r>
       <r>   11.5965    0.0000 </r>
       <r>   11.5966    0.0000 </r>
       <r>   12.0748    0.0000 </r>
       <r>   12.0749    0.0000 </r>
       <r>   12.1949    0.0000 </r>
       <r>   12.1968    0.0000 </r>
      </set>
      <set comment="kpoint 2">
       <r>  -20.9041    1.0000 </r>
       <r>  -20.9031    1.0000 </r>
       <r>  -20.8969    1.0000 </r>
       <r>  -20.8946    1.0000 </r>
       <r>  -17.9598    1.0000 </r>
       <r>  -17.9542    1.0000 </r>
       <r>  -17.9424    1.0000 </r>
       <r>  -17.9408    1.0000 </r>
       <r>  -17.9294    1.0000 </r>
       <r>  -17.9279    1.0000 </r>
       <r>   -8.9163    1.0000 </r>
       <r>   -8.9162    1.0000 </r>
       <r>   -7.3964    1.0000 </r>
       <r>   -7.3914    1.0000 </r>
       <r>   -3.5220    1.0000 </r>
       <r>   -3.3936    1.0000 </r>
       <r>   -0.5802    1.0000 </r>
       <r>   -0.4616    1.0000 </r>
       <r>    0.0248    1.0000 </r>
       <r>    0.3790    1.0000 </r>
       <r>    0.6714    1.0000 </r>
       <r>    0.7211    1.0000 </r>
       <r>    1.7449    1.0000 </r>
       <r>    2.1721    1.0000 </r>
       <r>    2.9580    1.0329 </r>
       <r>    3.1147    0.9128 </r>
       <r>    3.8592   -0.0000 </r>
       <r>    3.9064   -0.0000 </r>
       <r>    4.6489   -0.0000 </r>
       <r>    4.7832   -0.0000 </r>
       <r>    5.9642   -0.0000 </r>
       <r>    5.9862   -0.0000 </r>
       <r>    6.2726   -0.0000 </r>
       <r>    6.3136   -0.0000 </r>
       <r>    6.4336   -0.0000 </r>
       <r>    6.4818   -0.0000 </r>
       <r>    7.4464   -0.0000 </r>
       <r>    7.7006   -0.0000 </r>
       <r>    9.6947    0.0000 </r>
       <r>    9.9663    0.0000 </r>
       <r>   10.1683    0.0000 </r>
       <r>   10.2458    0.0000 </r>
       <r>   10.3318    0.0000 </r>
       <r>   10.3492    0.0000 </r>
       <r>   11.0348    0.0000 </r>
       <r>   11.1361    0.0000 </r>
       <r>   11.2478    0.0000 </r>
       <r>   11.3079    0.0000 </r>
      </set>
      <set comment="kpoint 3">
       <r>  -20.9045    1.0000 </r>
       <r>  -20.9040    1.0000 </r>
       <r>  -20.8947    1.0000 </r>
       <r>  -20.8932    1.0000 </r>
       <r>  -17.9575    1.0000 </r>
       <r>  -17.9542    1.0000 </r>
       <r>  -17.9431    1.0000 </r>
       <r>  -17.9429    1.0000 </r>
       <r>  -17.9258    1.0000 </r>
       <r>  -17.9257    1.0000 </r>
       <r>   -8.3192    1.0000 </r>
       <r>   -8.3186    1.0000 </r>
       <r>   -7.6480    1.0000 </r>
       <r>   -7.6443    1.0000 </r>
       <r>   -3.1782    1.0000 </r>
       <r>   -3.0129    1.0000 </r>
       <r>   -1.9843    1.0000 </r>
       <r>   -1.8961    1.0000 </r>
       <r>   -0.6852    1.0000 </r>
       <r>   -0.1904    1.0000 </r>
       <r>    0.3014    1.0000 </r>
       <r>    0.7583    1.0000 </r>
       <r>    1.1331    1.0000 </r>
       <r>    1.1465    1.0000 </r>
       <r>    2.5934    1.0000 </r>
       <r>    2.6462    1.0001 </r>
       <r>    4.3190   -0.0000 </r>
       <r>    4.3469   -0.0000 </r>
       <r>    5.2863   -0.0000 </r>
       <r>    5.4060   -0.0000 </r>
       <r>    6.9734   -0.0000 </r>
       <r>    7.0353   -0.0000 </r>
       <r>    7.2217   -0.0000 </r>
       <r>    7.2762   -0.0000 </r>
       <r>    7.5835   -0.0000 </r>
       <r>    7.6122   -0.0000 </r>
       <r>    8.0739   -0.0000 </r>
       <r>    8.4811   -0.0000 </r>
       <r>    8.7782    0.0000 </r>
       <r>    8.7828    0.0000 </r>
       <r>    8.8417    0.0000 </r>
       <r>    8.9530    0.0000 </r>
       <r>   10.2557    0.0000 </r>
       <r>   10.3166    0.0000 </r>
       <r>   10.4576    0.0000 </r>
       <r>   10.5012    0.0000 </r>
       <r>   11.2484    0.0000 </r>
       <r>   11.2923    0.0000 </r>
      </set>
      <set comment="kpoint 4">
       <r>  -20.9045    1.0000 </r>
       <r>  -20.9040    1.0000 </r>
       <r>  -20.8947    1.0000 </r>
       <r>  -20.8932    1.0000 </r>
       <r>  -17.9575    1.0000 </r>
       <r>  -17.9542    1.0000 </r>
       <r>  -17.9431    1.0000 </r>
       <r>  -17.9429    1.0000 </r>
       <r>  -17.9258    1.0000 </r>
       <r>  -17.9257    1.0000 </r>
       <r>   -8.3192    1.0000 </r>
       <r>   -8.3186    1.0000 </r>
       <r>   -7.6480    1.0000 </r>
       <r>   -7.6443    1.0000 </r>
       <r>   -3.1782    1.0000 </r>
       <r>   -3.0129    1.0000 </r>
       <r>   -1.9842    1.0000 </r>
       <r>   -1.8961    1.0000 </r>
       <r>   -0.6852    1.0000 </r>
       <r>   -0.1904    1.0000 </r>
       <r>    0.3014    1.0000 </r>
       <r>    0.7583    1.0000 </r>
       <r>    1.1331    1.0000 </r>
       <r>    1.1464    1.0000 </r>
       <r>    2.5934    1.0000 </r>
       <r>    2.6462    1.0001 </r>
       <r>    4.3191   -0.0000 </r>
       <r>    4.3469   -0.0000 </r>
       <r>    5.2863   -0.0000 </r>
       <r>    5.4060   -0.0000 </r>
       <r>    6.9734   -0.0000 </r>
       <r>    7.0353   -0.0000 </r>
       <r>    7.2217   -0.0000 </r>
       <r>    7.2762   -0.0000 </r>
       <r>    7.5836   -0.0000 </r>
       <r>    7.6122   -0.0000 </r>
       <r>    8.0738   -0.0000 </r>
       <r>    8.4811   -0.0000 </r>
       <r>    8.7782    0.0000 </r>
       <r>    8.7829    0.0000 </r>
       <r>    8.8417    0.0000 </r>
       <r>    8.9530    0.0000 </r>
       <r>   10.2557    0.0000 </r>
       <r>   10.3166    0.0000 </r>
       <r>   10.4576    0.0000 </r>
       <r>   10.5012    0.0000 </r>
       <r>   11.2484    0.0000 </r>
       <r>   11.2923    0.0000 </r>
      </set>
      <set comment="kpoint 5">
       <r>  -20.9041    1.0000 </r>
       <r>  -20.9031    1.0000 </r>
       <r>  -20.8969    1.0000 </r>
       <r>  -20.8946    1.0000 </r>
       <r>  -17.9598    1.0000 </r>
       <r>  -17.9542    1.0000 </r>
       <r>  -17.9424    1.0000 </r>
       <r>  -17.9408    1.0000 </r>
       <r>  -17.9294    1.0000 </r>
       <r>  -17.9279    1.0000 </r>
       <r>   -8.9163    1.0000 </r>
       <r>   -8.9161    1.0000 </r>
       <r>   -7.3964    1.0000 </r>
       <r>   -7.3914    1.0000 </r>
       <r>   -3.5220    1.0000 </r>
       <r>   -3.3936    1.0000 </r>
       <r>   -0.5802    1.0000 </r>
       <r>   -0.4616    1.0000 </r>
       <r>    0.0248    1.0000 </r>
       <r>    0.3790    1.0000 </r>
       <r>    0.6714    1.0000 </r>
       <r>    0.7211    1.0000 </r>
       <r>    1.7449    1.0000 </r>
       <r>    2.1721    1.0000 </r>
       <r>    2.9581    1.0329 </r>
       <r>    3.1147    0.9128 </r>
       <r>    3.8592   -0.0000 </r>
       <r>    3.9064   -0.0000 </r>
       <r>    4.6489   -0.0000 </r>
       <r>    4.7831   -0.0000 </r>
       <r>    5.9642   -0.0000 </r>
       <r>    5.9862   -0.0000 </r>
       <r>    6.2726   -0.0000 </r>
       <r>    6.3136   -0.0000 </r>
       <r>    6.4336   -0.0000 </r>
       <r>    6.4818   -0.0000 </r>
       <r>    7.4464   -0.0000 </r>
       <r>    7.7006   -0.0000 </r>
       <r>    9.6947    0.0000 </r>
       <r>    9.9663    0.0000 </r>
       <r>   10.1683    0.0000 </r>
       <r>   10.2458    0.0000 </r>
       <r>   10.3318    0.0000 </r>
       <r>   10.3492    0.0000 </r>
       <r>   11.0348    0.0000 </r>
       <r>   11.1361    0.0000 </r>
       <r>   11.2482    0.0000 </r>
       <r>   11.3078    0.0000 </r>
      </set>
      <set comment="kpoint 6">
       <r>  -20.9041    1.0000 </r>
       <r>  -20.9031    1.0000 </r>
       <r>  -20.8969    1.0000 </r>
       <r>  -20.8946    1.0000 </r>
       <r>  -17.9598    1.0000 </r>
       <r>  -17.9542    1.0000 </r>
       <r>  -17.9424    1.0000 </r>
       <r>  -17.9408    1.0000 </r>
       <r>  -17.9294    1.0000 </r>
       <r>  -17.9279    1.0000 </r>
       <r>   -8.9163    1.0000 </r>
       <r>   -8.9162    1.0000 </r>
       <r>   -7.3964    1.0000 </r>
       <r>   -7.3914    1.0000 </r>
       <r>   -3.5220    1.0000 </r>
       <r>   -3.3936    1.0000 </r>
       <r>   -0.5802    1.0000 </r>
       <r>   -0.4616    1.0000 </r>
       <r>    0.0248    1.0000 </r>
       <r>    0.3790    1.0000 </r>
       <r>    0.6714    1.0000 </r>
       <r>    0.7211    1.0000 </r>
       <r>    1.7449    1.0000 </r>
       <r>    2.1721    1.0000 </r>
       <r>    2.9580    1.0329 </r>
       <r>    3.1147    0.9128 </r>
       <r>    3.8592   -0.0000 </r>
       <r>    3.9064   -0.0000 </r>
       <r>    4.6489   -0.0000 </r>
       <r>    4.7832   -0.0000 </r>
       <r>    5.9642   -0.0000 </r>
       <r>    5.9862   -0.0000 </r>
       <r>    6.2726   -0.0000 </r>
       <r>    6.3136   -0.0000 </r>
       <r>    6.4336   -0.0000 </r>
       <r>    6.4818   -0.0000 </r>
       <r>    7.4464   -0.0000 </r>
       <r>    7.7006   -0.0000 </r>
       <r>    9.6947    0.0000 </r>
       <r>    9.9663    0.0000 </r>
       <r>   10.1683    0.0000 </r>
       <r>   10.2458    0.0000 </r>
       <r>   10.3318    0.0000 </r>
       <r>   10.3492    0.0000 </r>
       <r>   11.0348    0.0000 </r>
       <r>   11.1361    0.0000 </r>
       <r>   11.2477    0.0000 </r>
       <r>   11.3081    0.0000 </r>
      </set>
      <set comment="kpoint 7">
       <r>  -20.9049    1.0000 </r>
       <r>  -20.9033    1.0000 </r>
       <r>  -20.8960    1.0000 </r>
       <r>  -20.8931    1.0000 </r>
       <r>  -17.9601    1.0000 </r>
       <r>  -17.9526    1.0000 </r>
       <r>  -17.9423    1.0000 </r>
       <r>  -17.9397    1.0000 </r>
       <r>  -17.9295    1.0000 </r>
       <r>  -17.9270    1.0000 </r>
       <r>   -8.6927    1.0000 </r>
       <r>   -8.6925    1.0000 </r>
       <r>   -7.3614    1.0000 </r>
       <r>   -7.3550    1.0000 </r>
       <r>   -3.5067    1.0000 </r>
       <r>   -3.3402    1.0000 </r>
       <r>   -0.8746    1.0000 </r>
       <r>   -0.8614    1.0000 </r>
       <r>   -0.4818    1.0000 </r>
       <r>   -0.0627    1.0000 </r>
       <r>    0.2013    1.0000 </r>
       <r>    0.2795    1.0000 </r>
       <r>    1.5562    1.0000 </r>
       <r>    1.5833    1.0000 </r>
       <r>    2.0614    1.0000 </r>
       <r>    2.2327    1.0000 </r>
       <r>    4.6936   -0.0000 </r>
       <r>    4.7147   -0.0000 </r>
       <r>    5.2366   -0.0000 </r>
       <r>    5.2504   -0.0000 </r>
       <r>    5.8925   -0.0000 </r>
       <r>    6.2125   -0.0000 </r>
       <r>    6.5371   -0.0000 </r>
       <r>    6.5740   -0.0000 </r>
       <r>    7.8012   -0.0000 </r>
       <r>    7.9159   -0.0000 </r>
       <r>    7.9897   -0.0000 </r>
       <r>    8.4803   -0.0000 </r>
       <r>    8.4933   -0.0000 </r>
       <r>    8.5821   -0.0000 </r>
       <r>    8.8141    0.0000 </r>
       <r>    8.9080    0.0000 </r>
       <r>    9.6465    0.0000 </r>
       <r>    9.6489    0.0000 </r>
       <r>   11.3264    0.0000 </r>
       <r>   11.3444    0.0000 </r>
       <r>   12.3282    0.0000 </r>
       <r>   12.6087    0.0000 </r>
      </set>
      <set comment="kpoint 8">
       <r>  -20.9055    1.0000 </r>
       <r>  -20.9040    1.0000 </r>
       <r>  -20.8940    1.0000 </r>
       <r>  -20.8916    1.0000 </r>
       <r>  -17.9589    1.0000 </r>
       <r>  -17.9535    1.0000 </r>
       <r>  -17.9431    1.0000 </r>
       <r>  -17.9401    1.0000 </r>
       <r>  -17.9262    1.0000 </r>
       <r>  -17.9243    1.0000 </r>
       <r>   -8.1208    1.0000 </r>
       <r>   -8.1200    1.0000 </r>
       <r>   -7.5100    1.0000 </r>
       <r>   -7.5057    1.0000 </r>
       <r>   -3.3061    1.0000 </r>
       <r>   -3.1453    1.0000 </r>
       <r>   -2.3035    1.0000 </r>
       <r>   -2.2324    1.0000 </r>
       <r>   -0.4960    1.0000 </r>
       <r>   -0.0425    1.0000 </r>
       <r>    0.2696    1.0000 </r>
       <r>    0.4554    1.0000 </r>
       <r>    0.5531    1.0000 </r>
       <r>    0.9108    1.0000 </r>
       <r>    1.3269    1.0000 </r>
       <r>    1.8115    1.0000 </r>
       <r>    4.8371   -0.0000 </r>
       <r>    5.0529   -0.0000 </r>
       <r>    5.3891   -0.0000 </r>
       <r>    5.4139   -0.0000 </r>
       <r>    5.8527   -0.0000 </r>
       <r>    6.2712   -0.0000 </r>
       <r>    6.5510   -0.0000 </r>
       <r>    6.6835   -0.0000 </r>
       <r>    7.4419   -0.0000 </r>
       <r>    7.4959   -0.0000 </r>
       <r>    8.3376   -0.0000 </r>
       <r>    8.5436   -0.0000 </r>
       <r>    9.1224    0.0000 </r>
       <r>    9.2962    0.0000 </r>
       <r>    9.6648    0.0000 </r>
       <r>    9.7395    0.0000 </r>
       <r>   10.5756    0.0000 </r>
       <r>   10.9806    0.0000 </r>
       <r>   11.8352    0.0000 </r>
       <r>   12.1147    0.0000 </r>
       <r>   12.4820    0.0000 </r>
       <r>   12.5504    0.0000 </r>
      </set>
      <set comment="kpoint 9">
       <r>  -20.9055    1.0000 </r>
       <r>  -20.9040    1.0000 </r>
       <r>  -20.8940    1.0000 </r>
       <r>  -20.8916    1.0000 </r>
       <r>  -17.9589    1.0000 </r>
       <r>  -17.9535    1.0000 </r>
       <r>  -17.9431    1.0000 </r>
       <r>  -17.9401    1.0000 </r>
       <r>  -17.9262    1.0000 </r>
       <r>  -17.9243    1.0000 </r>
       <r>   -8.1208    1.0000 </r>
       <r>   -8.1200    1.0000 </r>
       <r>   -7.5100    1.0000 </r>
       <r>   -7.5057    1.0000 </r>
       <r>   -3.3061    1.0000 </r>
       <r>   -3.1453    1.0000 </r>
       <r>   -2.3034    1.0000 </r>
       <r>   -2.2324    1.0000 </r>
       <r>   -0.4960    1.0000 </r>
       <r>   -0.0425    1.0000 </r>
       <r>    0.2696    1.0000 </r>
       <r>    0.4554    1.0000 </r>
       <r>    0.5531    1.0000 </r>
       <r>    0.9108    1.0000 </r>
       <r>    1.3269    1.0000 </r>
       <r>    1.8115    1.0000 </r>
       <r>    4.8371   -0.0000 </r>
       <r>    5.0529   -0.0000 </r>
       <r>    5.3891   -0.0000 </r>
       <r>    5.4139   -0.0000 </r>
       <r>    5.8526   -0.0000 </r>
       <r>    6.2712   -0.0000 </r>
       <r>    6.5510   -0.0000 </r>
       <r>    6.6835   -0.0000 </r>
       <r>    7.4419   -0.0000 </r>
       <r>    7.4959   -0.0000 </r>
       <r>    8.3376   -0.0000 </r>
       <r>    8.5436   -0.0000 </r>
       <r>    9.1224    0.0000 </r>
       <r>    9.2962    0.0000 </r>
       <r>    9.6647    0.0000 </r>
       <r>    9.7395    0.0000 </r>
       <r>   10.5756    0.0000 </r>
       <r>   10.9806    0.0000 </r>
       <r>   11.8353    0.0000 </r>
       <r>   12.1147    0.0000 </r>
       <r>   12.4820    0.0000 </r>
       <r>   12.5504    0.0000 </r>
      </set>
      <set comment="kpoint 10">
       <r>  -20.9049    1.0000 </r>
       <r>  -20.9033    1.0000 </r>
       <r>  -20.8960    1.0000 </r>
       <r>  -20.8931    1.0000 </r>
       <r>  -17.9601    1.0000 </r>
       <r>  -17.9526    1.0000 </r>
       <r>  -17.9423    1.0000 </r>
       <r>  -17.9397    1.0000 </r>
       <r>  -17.9295    1.0000 </r>
       <r>  -17.9270    1.0000 </r>
       <r>   -8.6927    1.0000 </r>
       <r>   -8.6925    1.0000 </r>
       <r>   -7.3614    1.0000 </r>
       <r>   -7.3550    1.0000 </r>
       <r>   -3.5067    1.0000 </r>
       <r>   -3.3402    1.0000 </r>
       <r>   -0.8746    1.0000 </r>
       <r>   -0.8614    1.0000 </r>
       <r>   -0.4818    1.0000 </r>
       <r>   -0.0628    1.0000 </r>
       <r>    0.2013    1.0000 </r>
       <r>    0.2795    1.0000 </r>
       <r>    1.5562    1.0000 </r>
       <r>    1.5833    1.0000 </r>
       <r>    2.0614    1.0000 </r>
       <r>    2.2327    1.0000 </r>
       <r>    4.6936   -0.0000 </r>
       <r>    4.7147   -0.0000 </r>
       <r>    5.2366   -0.0000 </r>
       <r>    5.2504   -0.0000 </r>
       <r>    5.8925   -0.0000 </r>
       <r>    6.2125   -0.0000 </r>
       <r>    6.5371   -0.0000 </r>
       <r>    6.5740   -0.0000 </r>
       <r>    7.8012   -0.0000 </r>
       <r>    7.9159   -0.0000 </r>
       <r>    7.9897   -0.0000 </r>
       <r>    8.4803   -0.0000 </r>
       <r>    8.4933   -0.0000 </r>
       <r>    8.5821   -0.0000 </r>
       <r>    8.8141    0.0000 </r>
       <r>    8.9080    0.0000 </r>
       <r>    9.6465    0.0000 </r>
       <r>    9.6489    0.0000 </r>
       <r>   11.3263    0.0000 </r>
       <r>   11.3444    0.0000 </r>
       <r>   12.3282    0.0000 </r>
       <r>   12.6153    0.0000 </r>
      </set>
      <set comment="kpoint 11">
       <r>  -20.9045    1.0000 </r>
       <r>  -20.9040    1.0000 </r>
       <r>  -20.8947    1.0000 </r>
       <r>  -20.8932    1.0000 </r>
       <r>  -17.9575    1.0000 </r>
       <r>  -17.9542    1.0000 </r>
       <r>  -17.9431    1.0000 </r>
       <r>  -17.9429    1.0000 </r>
       <r>  -17.9258    1.0000 </r>
       <r>  -17.9257    1.0000 </r>
       <r>   -8.3192    1.0000 </r>
       <r>   -8.3186    1.0000 </r>
       <r>   -7.6480    1.0000 </r>
       <r>   -7.6443    1.0000 </r>
       <r>   -3.1782    1.0000 </r>
       <r>   -3.0129    1.0000 </r>
       <r>   -1.9843    1.0000 </r>
       <r>   -1.8961    1.0000 </r>
       <r>   -0.6852    1.0000 </r>
       <r>   -0.1904    1.0000 </r>
       <r>    0.3014    1.0000 </r>
       <r>    0.7583    1.0000 </r>
       <r>    1.1331    1.0000 </r>
       <r>    1.1465    1.0000 </r>
       <r>    2.5934    1.0000 </r>
       <r>    2.6462    1.0001 </r>
       <r>    4.3190   -0.0000 </r>
       <r>    4.3469   -0.0000 </r>
       <r>    5.2863   -0.0000 </r>
       <r>    5.4060   -0.0000 </r>
       <r>    6.9734   -0.0000 </r>
       <r>    7.0353   -0.0000 </r>
       <r>    7.2217   -0.0000 </r>
       <r>    7.2762   -0.0000 </r>
       <r>    7.5835   -0.0000 </r>
       <r>    7.6122   -0.0000 </r>
       <r>    8.0739   -0.0000 </r>
       <r>    8.4811   -0.0000 </r>
       <r>    8.7782    0.0000 </r>
       <r>    8.7828    0.0000 </r>
       <r>    8.8417    0.0000 </r>
       <r>    8.9530    0.0000 </r>
       <r>   10.2557    0.0000 </r>
       <r>   10.3166    0.0000 </r>
       <r>   10.4576    0.0000 </r>
       <r>   10.5012    0.0000 </r>
       <r>   11.2484    0.0000 </r>
       <r>   11.2923    0.0000 </r>
      </set>
      <set comment="kpoint 12">
       <r>  -20.9055    1.0000 </r>
       <r>  -20.9040    1.0000 </r>
       <r>  -20.8940    1.0000 </r>
       <r>  -20.8916    1.0000 </r>
       <r>  -17.9589    1.0000 </r>
       <r>  -17.9535    1.0000 </r>
       <r>  -17.9431    1.0000 </r>
       <r>  -17.9401    1.0000 </r>
       <r>  -17.9262    1.0000 </r>
       <r>  -17.9243    1.0000 </r>
       <r>   -8.1208    1.0000 </r>
       <r>   -8.1200    1.0000 </r>
       <r>   -7.5100    1.0000 </r>
       <r>   -7.5057    1.0000 </r>
       <r>   -3.3061    1.0000 </r>
       <r>   -3.1453    1.0000 </r>
       <r>   -2.3035    1.0000 </r>
       <r>   -2.2324    1.0000 </r>
       <r>   -0.4960    1.0000 </r>
       <r>   -0.0425    1.0000 </r>
       <r>    0.2696    1.0000 </r>
       <r>    0.4554    1.0000 </r>
       <r>    0.5531    1.0000 </r>
       <r>    0.9108    1.0000 </r>
       <r>    1.3269    1.0000 </r>
       <r>    1.8115    1.0000 </r>
       <r>    4.8371   -0.0000 </r>
       <r>    5.0529   -0.0000 </r>
       <r>    5.3891   -0.0000 </r>
       <r>    5.4139   -0.0000 </r>
       <r>    5.8527   -0.0000 </r>
       <r>    6.2712   -0.0000 </r>
       <r>    6.5510   -0.0000 </r>
       <r>    6.6835   -0.0000 </r>
       <r>    7.4419   -0.0000 </r>
       <r>    7.4959   -0.0000 </r>
       <r>    8.3376   -0.0000 </r>
       <r>    8.5436   -0.0000 </r>
       <r>    9.1224    0.0000 </r>
       <r>    9.2962    0.0000 </r>
       <r>    9.6648    0.0000 </r>
       <r>    9.7395    0.0000 </r>
       <r>   10.5756    0.0000 </r>
       <r>   10.9806    0.0000 </r>
       <r>   11.8352    0.0000 </r>
       <r>   12.1147    0.0000 </r>
       <r>   12.4820    0.0000 </r>
       <r>   12.5504    0.0000 </r>
      </set>
      <set comment="kpoint 13">
       <r>  -20.9058    1.0000 </r>
       <r>  -20.9048    1.0000 </r>
       <r>  -20.8920    1.0000 </r>
       <r>  -20.8901    1.0000 </r>
       <r>  -17.9588    1.0000 </r>
       <r>  -17.9554    1.0000 </r>
       <r>  -17.9418    1.0000 </r>
       <r>  -17.9401    1.0000 </r>
       <r>  -17.9223    1.0000 </r>
       <r>  -17.9221    1.0000 </r>
       <r>   -7.6749    1.0000 </r>
       <r>   -7.6743    1.0000 </r>
       <r>   -7.3122    1.0000 </r>
       <r>   -7.3091    1.0000 </r>
       <r>   -3.5645    1.0000 </r>
       <r>   -3.4675    1.0000 </r>
       <r>   -3.1184    1.0000 </r>
       <r>   -3.1092    1.0000 </r>
       <r>   -0.0852    1.0000 </r>
       <r>    0.0430    1.0000 </r>
       <r>    0.2341    1.0000 </r>
       <r>    0.2743    1.0000 </r>
       <r>    0.6970    1.0000 </r>
       <r>    0.7816    1.0000 </r>
       <r>    0.9599    1.0000 </r>
       <r>    1.2201    1.0000 </r>
       <r>    4.0642   -0.0000 </r>
       <r>    4.0944   -0.0000 </r>
       <r>    4.4191   -0.0000 </r>
       <r>    4.4229   -0.0000 </r>
       <r>    4.7365   -0.0000 </r>
       <r>    5.0196   -0.0000 </r>
       <r>    5.2252   -0.0000 </r>
       <r>    5.2268   -0.0000 </r>
       <r>    9.8552    0.0000 </r>
       <r>    9.9488    0.0000 </r>
       <r>    9.9712    0.0000 </r>
       <r>    9.9973    0.0000 </r>
       <r>   10.4772    0.0000 </r>
       <r>   10.6880    0.0000 </r>
       <r>   10.9673    0.0000 </r>
       <r>   11.5347    0.0000 </r>
       <r>   11.9197    0.0000 </r>
       <r>   12.0987    0.0000 </r>
       <r>   12.7262    0.0000 </r>
       <r>   13.1127    0.0000 </r>
       <r>   13.4117    0.0000 </r>
       <r>   13.5255    0.0000 </r>
      </set>
      <set comment="kpoint 14">
       <r>  -20.9058    1.0000 </r>
       <r>  -20.9048    1.0000 </r>
       <r>  -20.8920    1.0000 </r>
       <r>  -20.8901    1.0000 </r>
       <r>  -17.9589    1.0000 </r>
       <r>  -17.9554    1.0000 </r>
       <r>  -17.9418    1.0000 </r>
       <r>  -17.9401    1.0000 </r>
       <r>  -17.9223    1.0000 </r>
       <r>  -17.9221    1.0000 </r>
       <r>   -7.6749    1.0000 </r>
       <r>   -7.6743    1.0000 </r>
       <r>   -7.3122    1.0000 </r>
       <r>   -7.3091    1.0000 </r>
       <r>   -3.5645    1.0000 </r>
       <r>   -3.4675    1.0000 </r>
       <r>   -3.1184    1.0000 </r>
       <r>   -3.1092    1.0000 </r>
       <r>   -0.0852    1.0000 </r>
       <r>    0.0430    1.0000 </r>
       <r>    0.2341    1.0000 </r>
       <r>    0.2743    1.0000 </r>
       <r>    0.6970    1.0000 </r>
       <r>    0.7816    1.0000 </r>
       <r>    0.9599    1.0000 </r>
       <r>    1.2201    1.0000 </r>
       <r>    4.0642   -0.0000 </r>
       <r>    4.0943   -0.0000 </r>
       <r>    4.4191   -0.0000 </r>
       <r>    4.4229   -0.0000 </r>
       <r>    4.7365   -0.0000 </r>
       <r>    5.0196   -0.0000 </r>
       <r>    5.2252   -0.0000 </r>
       <r>    5.2269   -0.0000 </r>
       <r>    9.8552    0.0000 </r>
       <r>    9.9488    0.0000 </r>
       <r>    9.9712    0.0000 </r>
       <r>    9.9973    0.0000 </r>
       <r>   10.4772    0.0000 </r>
       <r>   10.6880    0.0000 </r>
       <r>   10.9673    0.0000 </r>
       <r>   11.5347    0.0000 </r>
       <r>   11.9197    0.0000 </r>
       <r>   12.0987    0.0000 </r>
       <r>   12.7262    0.0000 </r>
       <r>   13.1127    0.0000 </r>
       <r>   13.4117    0.0000 </r>
       <r>   13.5255    0.0000 </r>
      </set>
      <set comment="kpoint 15">
       <r>  -20.9055    1.0000 </r>
       <r>  -20.9040    1.0000 </r>
       <r>  -20.8940    1.0000 </r>
       <r>  -20.8916    1.0000 </r>
       <r>  -17.9589    1.0000 </r>
       <r>  -17.9535    1.0000 </r>
       <r>  -17.9431    1.0000 </r>
       <r>  -17.9401    1.0000 </r>
       <r>  -17.9262    1.0000 </r>
       <r>  -17.9243    1.0000 </r>
       <r>   -8.1208    1.0000 </r>
       <r>   -8.1200    1.0000 </r>
       <r>   -7.5100    1.0000 </r>
       <r>   -7.5057    1.0000 </r>
       <r>   -3.3061    1.0000 </r>
       <r>   -3.1453    1.0000 </r>
       <r>   -2.3035    1.0000 </r>
       <r>   -2.2324    1.0000 </r>
       <r>   -0.4960    1.0000 </r>
       <r>   -0.0425    1.0000 </r>
       <r>    0.2696    1.0000 </r>
       <r>    0.4554    1.0000 </r>
       <r>    0.5531    1.0000 </r>
       <r>    0.9108    1.0000 </r>
       <r>    1.3269    1.0000 </r>
       <r>    1.8115    1.0000 </r>
       <r>    4.8371   -0.0000 </r>
       <r>    5.0529   -0.0000 </r>
       <r>    5.3892   -0.0000 </r>
       <r>    5.4139   -0.0000 </r>
       <r>    5.8526   -0.0000 </r>
       <r>    6.2712   -0.0000 </r>
       <r>    6.5510   -0.0000 </r>
       <r>    6.6835   -0.0000 </r>
       <r>    7.4419   -0.0000 </r>
       <r>    7.4959   -0.0000 </r>
       <r>    8.3376   -0.0000 </r>
       <r>    8.5436   -0.0000 </r>
       <r>    9.1224    0.0000 </r>
       <r>    9.2962    0.0000 </r>
       <r>    9.6648    0.0000 </r>
       <r>    9.7395    0.0000 </r>
       <r>   10.5756    0.0000 </r>
       <r>   10.9806    0.0000 </r>
       <r>   11.8353    0.0000 </r>
       <r>   12.1147    0.0000 </r>
       <r>   12.4820    0.0000 </r>
       <r>   12.5504    0.0000 </r>
      </set>
      <set comment="kpoint 16">
       <r>  -20.9045    1.0000 </r>
       <r>  -20.9040    1.0000 </r>
       <r>  -20.8947    1.0000 </r>
       <r>  -20.8932    1.0000 </r>
       <r>  -17.9575    1.0000 </r>
       <r>  -17.9542    1.0000 </r>
       <r>  -17.9431    1.0000 </r>
       <r>  -17.9429    1.0000 </r>
       <r>  -17.9258    1.0000 </r>
       <r>  -17.9257    1.0000 </r>
       <r>   -8.3192    1.0000 </r>
       <r>   -8.3186    1.0000 </r>
       <r>   -7.6480    1.0000 </r>
       <r>   -7.6443    1.0000 </r>
       <r>   -3.1782    1.0000 </r>
       <r>   -3.0129    1.0000 </r>
       <r>   -1.9842    1.0000 </r>
       <r>   -1.8961    1.0000 </r>
       <r>   -0.6852    1.0000 </r>
       <r>   -0.1904    1.0000 </r>
       <r>    0.3014    1.0000 </r>
       <r>    0.7583    1.0000 </r>
       <r>    1.1331    1.0000 </r>
       <r>    1.1464    1.0000 </r>
       <r>    2.5934    1.0000 </r>
       <r>    2.6462    1.0001 </r>
       <r>    4.3191   -0.0000 </r>
       <r>    4.3469   -0.0000 </r>
       <r>    5.2863   -0.0000 </r>
       <r>    5.4060   -0.0000 </r>
       <r>    6.9734   -0.0000 </r>
       <r>    7.0353   -0.0000 </r>
       <r>    7.2217   -0.0000 </r>
       <r>    7.2762   -0.0000 </r>
       <r>    7.5836   -0.0000 </r>
       <r>    7.6122   -0.0000 </r>
       <r>    8.0738   -0.0000 </r>
       <r>    8.4811   -0.0000 </r>
       <r>    8.7782    0.0000 </r>
       <r>    8.7829    0.0000 </r>
       <r>    8.8417    0.0000 </r>
       <r>    8.9530    0.0000 </r>
       <r>   10.2557    0.0000 </r>
       <r>   10.3166    0.0000 </r>
       <r>   10.4576    0.0000 </r>
       <r>   10.5012    0.0000 </r>
       <r>   11.2484    0.0000 </r>
       <r>   11.2923    0.0000 </r>
      </set>
      <set comment="kpoint 17">
       <r>  -20.9055    1.0000 </r>
       <r>  -20.9040    1.0000 </r>
       <r>  -20.8940    1.0000 </r>
       <r>  -20.8916    1.0000 </r>
       <r>  -17.9589    1.0000 </r>
       <r>  -17.9535    1.0000 </r>
       <r>  -17.9431    1.0000 </r>
       <r>  -17.9401    1.0000 </r>
       <r>  -17.9262    1.0000 </r>
       <r>  -17.9243    1.0000 </r>
       <r>   -8.1208    1.0000 </r>
       <r>   -8.1200    1.0000 </r>
       <r>   -7.5100    1.0000 </r>
       <r>   -7.5057    1.0000 </r>
       <r>   -3.3061    1.0000 </r>
       <r>   -3.1453    1.0000 </r>
       <r>   -2.3034    1.0000 </r>
       <r>   -2.2324    1.0000 </r>
       <r>   -0.4960    1.0000 </r>
       <r>   -0.0425    1.0000 </r>
       <r>    0.2696    1.0000 </r>
       <r>    0.4554    1.0000 </r>
       <r>    0.5531    1.0000 </r>
       <r>    0.9108    1.0000 </r>
       <r>    1.3269    1.0000 </r>
       <r>    1.8115    1.0000 </r>
       <r>    4.8371   -0.0000 </r>
       <r>    5.0529   -0.0000 </r>
       <r>    5.3891   -0.0000 </r>
       <r>    5.4139   -0.0000 </r>
       <r>    5.8526   -0.0000 </r>
       <r>    6.2712   -0.0000 </r>
       <r>    6.5510   -0.0000 </r>
       <r>    6.6835   -0.0000 </r>
       <r>    7.4419   -0.0000 </r>
       <r>    7.4959   -0.0000 </r>
       <r>    8.3376   -0.0000 </r>
       <r>    8.5436   -0.0000 </r>
       <r>    9.1224    0.0000 </r>
       <r>    9.2962    0.0000 </r>
       <r>    9.6647    0.0000 </r>
       <r>    9.7395    0.0000 </r>
       <r>   10.5756    0.0000 </r>
       <r>   10.9806    0.0000 </r>
       <r>   11.8353    0.0000 </r>
       <r>   12.1147    0.0000 </r>
       <r>   12.4820    0.0000 </r>
       <r>   12.5504    0.0000 </r>
      </set>
      <set comment="kpoint 18">
       <r>  -20.9058    1.0000 </r>
       <r>  -20.9048    1.0000 </r>
       <r>  -20.8920    1.0000 </r>
       <r>  -20.8901    1.0000 </r>
       <r>  -17.9589    1.0000 </r>
       <r>  -17.9554    1.0000 </r>
       <r>  -17.9418    1.0000 </r>
       <r>  -17.9401    1.0000 </r>
       <r>  -17.9223    1.0000 </r>
       <r>  -17.9221    1.0000 </r>
       <r>   -7.6749    1.0000 </r>
       <r>   -7.6743    1.0000 </r>
       <r>   -7.3122    1.0000 </r>
       <r>   -7.3091    1.0000 </r>
       <r>   -3.5645    1.0000 </r>
       <r>   -3.4675    1.0000 </r>
       <r>   -3.1184    1.0000 </r>
       <r>   -3.1092    1.0000 </r>
       <r>   -0.0852    1.0000 </r>
       <r>    0.0430    1.0000 </r>
       <r>    0.2341    1.0000 </r>
       <r>    0.2743    1.0000 </r>
       <r>    0.6970    1.0000 </r>
       <r>    0.7816    1.0000 </r>
       <r>    0.9599    1.0000 </r>
       <r>    1.2201    1.0000 </r>
       <r>    4.0642   -0.0000 </r>
       <r>    4.0943   -0.0000 </r>
       <r>    4.4191   -0.0000 </r>
       <r>    4.4229   -0.0000 </r>
       <r>    4.7365   -0.0000 </r>
       <r>    5.0196   -0.0000 </r>
       <r>    5.2252   -0.0000 </r>
       <r>    5.2269   -0.0000 </r>
       <r>    9.8552    0.0000 </r>
       <r>    9.9488    0.0000 </r>
       <r>    9.9712    0.0000 </r>
       <r>    9.9973    0.0000 </r>
       <r>   10.4772    0.0000 </r>
       <r>   10.6880    0.0000 </r>
       <r>   10.9673    0.0000 </r>
       <r>   11.5347    0.0000 </r>
       <r>   11.9197    0.0000 </r>
       <r>   12.0987    0.0000 </r>
       <r>   12.7262    0.0000 </r>
       <r>   13.1127    0.0000 </r>
       <r>   13.4117    0.0000 </r>
       <r>   13.5255    0.0000 </r>
      </set>
      <set comment="kpoint 19">
       <r>  -20.9058    1.0000 </r>
       <r>  -20.9048    1.0000 </r>
       <r>  -20.8920    1.0000 </r>
       <r>  -20.8901    1.0000 </r>
       <r>  -17.9589    1.0000 </r>
       <r>  -17.9554    1.0000 </r>
       <r>  -17.9418    1.0000 </r>
       <r>  -17.9401    1.0000 </r>
       <r>  -17.9223    1.0000 </r>
       <r>  -17.9221    1.0000 </r>
       <r>   -7.6749    1.0000 </r>
       <r>   -7.6743    1.0000 </r>
       <r>   -7.3122    1.0000 </r>
       <r>   -7.3091    1.0000 </r>
       <r>   -3.5645    1.0000 </r>
       <r>   -3.4675    1.0000 </r>
       <r>   -3.1184    1.0000 </r>
       <r>   -3.1092    1.0000 </r>
       <r>   -0.0852    1.0000 </r>
       <r>    0.0430    1.0000 </r>
       <r>    0.2341    1.0000 </r>
       <r>    0.2743    1.0000 </r>
       <r>    0.6970    1.0000 </r>
       <r>    0.7816    1.0000 </r>
       <r>    0.9599    1.0000 </r>
       <r>    1.2201    1.0000 </r>
       <r>    4.0642   -0.0000 </r>
       <r>    4.0943   -0.0000 </r>
       <r>    4.4191   -0.0000 </r>
       <r>    4.4229   -0.0000 </r>
       <r>    4.7365   -0.0000 </r>
       <r>    5.0196   -0.0000 </r>
       <r>    5.2252   -0.0000 </r>
       <r>    5.2269   -0.0000 </r>
       <r>    9.8552    0.0000 </r>
       <r>    9.9488    0.0000 </r>
       <r>    9.9712    0.0000 </r>
       <r>    9.9973    0.0000 </r>
       <r>   10.4772    0.0000 </r>
       <r>   10.6880    0.0000 </r>
       <r>   10.9673    0.0000 </r>
       <r>   11.5347    0.0000 </r>
       <r>   11.9197    0.0000 </r>
       <r>   12.0987    0.0000 </r>
       <r>   12.7262    0.0000 </r>
       <r>   13.1127    0.0000 </r>
       <r>   13.4116    0.0000 </r>
       <r>   13.5255    0.0000 </r>
      </set>
      <set comment="kpoint 20">
       <r>  -20.9055    1.0000 </r>
       <r>  -20.9040    1.0000 </r>
       <r>  -20.8940    1.0000 </r>
       <r>  -20.8916    1.0000 </r>
       <r>  -17.9589    1.0000 </r>
       <r>  -17.9535    1.0000 </r>
       <r>  -17.9431    1.0000 </r>
       <r>  -17.9401    1.0000 </r>
       <r>  -17.9262    1.0000 </r>
       <r>  -17.9243    1.0000 </r>
       <r>   -8.1208    1.0000 </r>
       <r>   -8.1200    1.0000 </r>
       <r>   -7.5100    1.0000 </r>
       <r>   -7.5057    1.0000 </r>
       <r>   -3.3061    1.0000 </r>
       <r>   -3.1453    1.0000 </r>
       <r>   -2.3035    1.0000 </r>
       <r>   -2.2324    1.0000 </r>
       <r>   -0.4960    1.0000 </r>
       <r>   -0.0425    1.0000 </r>
       <r>    0.2696    1.0000 </r>
       <r>    0.4554    1.0000 </r>
       <r>    0.5531    1.0000 </r>
       <r>    0.9108    1.0000 </r>
       <r>    1.3269    1.0000 </r>
       <r>    1.8115    1.0000 </r>
       <r>    4.8371   -0.0000 </r>
       <r>    5.0529   -0.0000 </r>
       <r>    5.3892   -0.0000 </r>
       <r>    5.4139   -0.0000 </r>
       <r>    5.8526   -0.0000 </r>
       <r>    6.2712   -0.0000 </r>
       <r>    6.5510   -0.0000 </r>
       <r>    6.6835   -0.0000 </r>
       <r>    7.4419   -0.0000 </r>
       <r>    7.4959   -0.0000 </r>
       <r>    8.3376   -0.0000 </r>
       <r>    8.5436   -0.0000 </r>
       <r>    9.1224    0.0000 </r>
       <r>    9.2962    0.0000 </r>
       <r>    9.6647    0.0000 </r>
       <r>    9.7395    0.0000 </r>
       <r>   10.5756    0.0000 </r>
       <r>   10.9806    0.0000 </r>
       <r>   11.8353    0.0000 </r>
       <r>   12.1147    0.0000 </r>
       <r>   12.4820    0.0000 </r>
       <r>   12.5504    0.0000 </r>
      </set>
      <set comment="kpoint 21">
       <r>  -20.9041    1.0000 </r>
       <r>  -20.9031    1.0000 </r>
       <r>  -20.8969    1.0000 </r>
       <r>  -20.8946    1.0000 </r>
       <r>  -17.9598    1.0000 </r>
       <r>  -17.9542    1.0000 </r>
       <r>  -17.9424    1.0000 </r>
       <r>  -17.9408    1.0000 </r>
       <r>  -17.9294    1.0000 </r>
       <r>  -17.9279    1.0000 </r>
       <r>   -8.9163    1.0000 </r>
       <r>   -8.9161    1.0000 </r>
       <r>   -7.3964    1.0000 </r>
       <r>   -7.3914    1.0000 </r>
       <r>   -3.5220    1.0000 </r>
       <r>   -3.3936    1.0000 </r>
       <r>   -0.5802    1.0000 </r>
       <r>   -0.4616    1.0000 </r>
       <r>    0.0248    1.0000 </r>
       <r>    0.3790    1.0000 </r>
       <r>    0.6714    1.0000 </r>
       <r>    0.7211    1.0000 </r>
       <r>    1.7449    1.0000 </r>
       <r>    2.1721    1.0000 </r>
       <r>    2.9580    1.0329 </r>
       <r>    3.1147    0.9128 </r>
       <r>    3.8592   -0.0000 </r>
       <r>    3.9064   -0.0000 </r>
       <r>    4.6489   -0.0000 </r>
       <r>    4.7831   -0.0000 </r>
       <r>    5.9642   -0.0000 </r>
       <r>    5.9862   -0.0000 </r>
       <r>    6.2726   -0.0000 </r>
       <r>    6.3136   -0.0000 </r>
       <r>    6.4336   -0.0000 </r>
       <r>    6.4818   -0.0000 </r>
       <r>    7.4464   -0.0000 </r>
       <r>    7.7006   -0.0000 </r>
       <r>    9.6947    0.0000 </r>
       <r>    9.9663    0.0000 </r>
       <r>   10.1683    0.0000 </r>
       <r>   10.2458    0.0000 </r>
       <r>   10.3318    0.0000 </r>
       <r>   10.3492    0.0000 </r>
       <r>   11.0348    0.0000 </r>
       <r>   11.1361    0.0000 </r>
       <r>   11.2478    0.0000 </r>
       <r>   11.3084    0.0000 </r>
      </set>
      <set comment="kpoint 22">
       <r>  -20.9049    1.0000 </r>
       <r>  -20.9033    1.0000 </r>
       <r>  -20.8960    1.0000 </r>
       <r>  -20.8931    1.0000 </r>
       <r>  -17.9601    1.0000 </r>
       <r>  -17.9526    1.0000 </r>
       <r>  -17.9423    1.0000 </r>
       <r>  -17.9397    1.0000 </r>
       <r>  -17.9295    1.0000 </r>
       <r>  -17.9270    1.0000 </r>
       <r>   -8.6927    1.0000 </r>
       <r>   -8.6925    1.0000 </r>
       <r>   -7.3614    1.0000 </r>
       <r>   -7.3550    1.0000 </r>
       <r>   -3.5067    1.0000 </r>
       <r>   -3.3402    1.0000 </r>
       <r>   -0.8746    1.0000 </r>
       <r>   -0.8614    1.0000 </r>
       <r>   -0.4818    1.0000 </r>
       <r>   -0.0628    1.0000 </r>
       <r>    0.2013    1.0000 </r>
       <r>    0.2795    1.0000 </r>
       <r>    1.5562    1.0000 </r>
       <r>    1.5833    1.0000 </r>
       <r>    2.0614    1.0000 </r>
       <r>    2.2327    1.0000 </r>
       <r>    4.6936   -0.0000 </r>
       <r>    4.7147   -0.0000 </r>
       <r>    5.2366   -0.0000 </r>
       <r>    5.2504   -0.0000 </r>
       <r>    5.8925   -0.0000 </r>
       <r>    6.2125   -0.0000 </r>
       <r>    6.5371   -0.0000 </r>
       <r>    6.5740   -0.0000 </r>
       <r>    7.8012   -0.0000 </r>
       <r>    7.9159   -0.0000 </r>
       <r>    7.9897   -0.0000 </r>
       <r>    8.4803   -0.0000 </r>
       <r>    8.4933   -0.0000 </r>
       <r>    8.5821   -0.0000 </r>
       <r>    8.8141    0.0000 </r>
       <r>    8.9080    0.0000 </r>
       <r>    9.6465    0.0000 </r>
       <r>    9.6489    0.0000 </r>
       <r>   11.3263    0.0000 </r>
       <r>   11.3444    0.0000 </r>
       <r>   12.3282    0.0000 </r>
       <r>   12.6148    0.0000 </r>
      </set>
      <set comment="kpoint 23">
       <r>  -20.9055    1.0000 </r>
       <r>  -20.9040    1.0000 </r>
       <r>  -20.8940    1.0000 </r>
       <r>  -20.8916    1.0000 </r>
       <r>  -17.9589    1.0000 </r>
       <r>  -17.9535    1.0000 </r>
       <r>  -17.9431    1.0000 </r>
       <r>  -17.9401    1.0000 </r>
       <r>  -17.9262    1.0000 </r>
       <r>  -17.9243    1.0000 </r>
       <r>   -8.1208    1.0000 </r>
       <r>   -8.1200    1.0000 </r>
       <r>   -7.5100    1.0000 </r>
       <r>   -7.5057    1.0000 </r>
       <r>   -3.3061    1.0000 </r>
       <r>   -3.1453    1.0000 </r>
       <r>   -2.3035    1.0000 </r>
       <r>   -2.2324    1.0000 </r>
       <r>   -0.4960    1.0000 </r>
       <r>   -0.0425    1.0000 </r>
       <r>    0.2696    1.0000 </r>
       <r>    0.4554    1.0000 </r>
       <r>    0.5531    1.0000 </r>
       <r>    0.9108    1.0000 </r>
       <r>    1.3269    1.0000 </r>
       <r>    1.8115    1.0000 </r>
       <r>    4.8371   -0.0000 </r>
       <r>    5.0529   -0.0000 </r>
       <r>    5.3892   -0.0000 </r>
       <r>    5.4139   -0.0000 </r>
       <r>    5.8526   -0.0000 </r>
       <r>    6.2712   -0.0000 </r>
       <r>    6.5510   -0.0000 </r>
       <r>    6.6835   -0.0000 </r>
       <r>    7.4419   -0.0000 </r>
       <r>    7.4959   -0.0000 </r>
       <r>    8.3376   -0.0000 </r>
       <r>    8.5436   -0.0000 </r>
       <r>    9.1224    0.0000 </r>
       <r>    9.2962    0.0000 </r>
       <r>    9.6648    0.0000 </r>
       <r>    9.7395    0.0000 </r>
       <r>   10.5756    0.0000 </r>
       <r>   10.9806    0.0000 </r>
       <r>   11.8353    0.0000 </r>
       <r>   12.1147    0.0000 </r>
       <r>   12.4820    0.0000 </r>
       <r>   12.5504    0.0000 </r>
      </set>
      <set comment="kpoint 24">
       <r>  -20.9055    1.0000 </r>
       <r>  -20.9040    1.0000 </r>
       <r>  -20.8940    1.0000 </r>
       <r>  -20.8916    1.0000 </r>
       <r>  -17.9589    1.0000 </r>
       <r>  -17.9535    1.0000 </r>
       <r>  -17.9431    1.0000 </r>
       <r>  -17.9401    1.0000 </r>
       <r>  -17.9262    1.0000 </r>
       <r>  -17.9243    1.0000 </r>
       <r>   -8.1208    1.0000 </r>
       <r>   -8.1200    1.0000 </r>
       <r>   -7.5100    1.0000 </r>
       <r>   -7.5057    1.0000 </r>
       <r>   -3.3061    1.0000 </r>
       <r>   -3.1453    1.0000 </r>
       <r>   -2.3035    1.0000 </r>
       <r>   -2.2324    1.0000 </r>
       <r>   -0.4960    1.0000 </r>
       <r>   -0.0425    1.0000 </r>
       <r>    0.2696    1.0000 </r>
       <r>    0.4554    1.0000 </r>
       <r>    0.5531    1.0000 </r>
       <r>    0.9108    1.0000 </r>
       <r>    1.3269    1.0000 </r>
       <r>    1.8115    1.0000 </r>
       <r>    4.8371   -0.0000 </r>
       <r>    5.0529   -0.0000 </r>
       <r>    5.3892   -0.0000 </r>
       <r>    5.4139   -0.0000 </r>
       <r>    5.8526   -0.0000 </r>
       <r>    6.2712   -0.0000 </r>
       <r>    6.5510   -0.0000 </r>
       <r>    6.6835   -0.0000 </r>
       <r>    7.4419   -0.0000 </r>
       <r>    7.4959   -0.0000 </r>
       <r>    8.3376   -0.0000 </r>
       <r>    8.5436   -0.0000 </r>
       <r>    9.1224    0.0000 </r>
       <r>    9.2962    0.0000 </r>
       <r>    9.6647    0.0000 </r>
       <r>    9.7395    0.0000 </r>
       <r>   10.5756    0.0000 </r>
       <r>   10.9806    0.0000 </r>
       <r>   11.8353    0.0000 </r>
       <r>   12.1147    0.0000 </r>
       <r>   12.4820    0.0000 </r>
       <r>   12.5504    0.0000 </r>
      </set>
      <set comment="kpoint 25">
       <r>  -20.9049    1.0000 </r>
       <r>  -20.9033    1.0000 </r>
       <r>  -20.8960    1.0000 </r>
       <r>  -20.8931    1.0000 </r>
       <r>  -17.9601    1.0000 </r>
       <r>  -17.9526    1.0000 </r>
       <r>  -17.9423    1.0000 </r>
       <r>  -17.9397    1.0000 </r>
       <r>  -17.9295    1.0000 </r>
       <r>  -17.9270    1.0000 </r>
       <r>   -8.6927    1.0000 </r>
       <r>   -8.6925    1.0000 </r>
       <r>   -7.3614    1.0000 </r>
       <r>   -7.3550    1.0000 </r>
       <r>   -3.5067    1.0000 </r>
       <r>   -3.3402    1.0000 </r>
       <r>   -0.8746    1.0000 </r>
       <r>   -0.8614    1.0000 </r>
       <r>   -0.4818    1.0000 </r>
       <r>   -0.0628    1.0000 </r>
       <r>    0.2013    1.0000 </r>
       <r>    0.2795    1.0000 </r>
       <r>    1.5562    1.0000 </r>
       <r>    1.5833    1.0000 </r>
       <r>    2.0614    1.0000 </r>
       <r>    2.2327    1.0000 </r>
       <r>    4.6936   -0.0000 </r>
       <r>    4.7147   -0.0000 </r>
       <r>    5.2366   -0.0000 </r>
       <r>    5.2504   -0.0000 </r>
       <r>    5.8925   -0.0000 </r>
       <r>    6.2125   -0.0000 </r>
       <r>    6.5371   -0.0000 </r>
       <r>    6.5739   -0.0000 </r>
       <r>    7.8012   -0.0000 </r>
       <r>    7.9159   -0.0000 </r>
       <r>    7.9897   -0.0000 </r>
       <r>    8.4802   -0.0000 </r>
       <r>    8.4933   -0.0000 </r>
       <r>    8.5821   -0.0000 </r>
       <r>    8.8141    0.0000 </r>
       <r>    8.9080    0.0000 </r>
       <r>    9.6465    0.0000 </r>
       <r>    9.6489    0.0000 </r>
       <r>   11.3263    0.0000 </r>
       <r>   11.3444    0.0000 </r>
       <r>   12.3282    0.0000 </r>
       <r>   12.6319    0.0000 </r>
      </set>
      <set comment="kpoint 26">
       <r>  -20.9030    1.0000 </r>
       <r>  -20.9030    1.0000 </r>
       <r>  -20.8971    1.0000 </r>
       <r>  -20.8971    1.0000 </r>
       <r>  -17.9583    1.0000 </r>
       <r>  -17.9583    1.0000 </r>
       <r>  -17.9414    1.0000 </r>
       <r>  -17.9414    1.0000 </r>
       <r>  -17.9291    1.0000 </r>
       <r>  -17.9291    1.0000 </r>
       <r>   -8.8344    1.0000 </r>
       <r>   -8.8344    1.0000 </r>
       <r>   -8.0037    1.0000 </r>
       <r>   -8.0037    1.0000 </r>
       <r>   -2.4711    1.0000 </r>
       <r>   -2.4711    1.0000 </r>
       <r>   -0.2971    1.0000 </r>
       <r>   -0.2971    1.0000 </r>
       <r>    0.6327    1.0000 </r>
       <r>    0.6327    1.0000 </r>
       <r>    0.8237    1.0000 </r>
       <r>    0.8237    1.0000 </r>
       <r>    1.8482    1.0000 </r>
       <r>    1.8482    1.0000 </r>
       <r>    2.7654    1.0024 </r>
       <r>    2.7654    1.0024 </r>
       <r>    3.9881   -0.0000 </r>
       <r>    3.9882   -0.0000 </r>
       <r>    4.7650   -0.0000 </r>
       <r>    4.7651   -0.0000 </r>
       <r>    5.0996   -0.0000 </r>
       <r>    5.0997   -0.0000 </r>
       <r>    5.7899   -0.0000 </r>
       <r>    5.7899   -0.0000 </r>
       <r>    7.4730   -0.0000 </r>
       <r>    7.4730   -0.0000 </r>
       <r>    7.6601   -0.0000 </r>
       <r>    7.6601   -0.0000 </r>
       <r>    9.5839    0.0000 </r>
       <r>    9.5839    0.0000 </r>
       <r>    9.6786    0.0000 </r>
       <r>    9.6786    0.0000 </r>
       <r>   10.1117    0.0000 </r>
       <r>   10.1117    0.0000 </r>
       <r>   10.4410    0.0000 </r>
       <r>   10.4410    0.0000 </r>
       <r>   10.7950    0.0000 </r>
       <r>   10.7951    0.0000 </r>
      </set>
      <set comment="kpoint 27">
       <r>  -20.9041    1.0000 </r>
       <r>  -20.9031    1.0000 </r>
       <r>  -20.8969    1.0000 </r>
       <r>  -20.8946    1.0000 </r>
       <r>  -17.9599    1.0000 </r>
       <r>  -17.9543    1.0000 </r>
       <r>  -17.9423    1.0000 </r>
       <r>  -17.9407    1.0000 </r>
       <r>  -17.9294    1.0000 </r>
       <r>  -17.9279    1.0000 </r>
       <r>   -8.6316    1.0000 </r>
       <r>   -8.6315    1.0000 </r>
       <r>   -7.8911    1.0000 </r>
       <r>   -7.8894    1.0000 </r>
       <r>   -2.8121    1.0000 </r>
       <r>   -2.7057    1.0000 </r>
       <r>   -1.3131    1.0000 </r>
       <r>   -1.2396    1.0000 </r>
       <r>    0.1967    1.0000 </r>
       <r>    0.4943    1.0000 </r>
       <r>    0.9042    1.0000 </r>
       <r>    0.9314    1.0000 </r>
       <r>    1.7136    1.0000 </r>
       <r>    2.0521    1.0000 </r>
       <r>    2.5841    1.0000 </r>
       <r>    2.7281    1.0011 </r>
       <r>    3.8441   -0.0001 </r>
       <r>    3.9565   -0.0000 </r>
       <r>    4.7972   -0.0000 </r>
       <r>    4.9161   -0.0000 </r>
       <r>    5.9952   -0.0000 </r>
       <r>    6.0217   -0.0000 </r>
       <r>    6.6674   -0.0000 </r>
       <r>    6.9054   -0.0000 </r>
       <r>    7.3137   -0.0000 </r>
       <r>    7.3721   -0.0000 </r>
       <r>    7.7912   -0.0000 </r>
       <r>    7.8345   -0.0000 </r>
       <r>    8.5167   -0.0000 </r>
       <r>    8.5473   -0.0000 </r>
       <r>    9.1057    0.0000 </r>
       <r>    9.1205    0.0000 </r>
       <r>   10.2595    0.0000 </r>
       <r>   10.2695    0.0000 </r>
       <r>   10.9659    0.0000 </r>
       <r>   10.9821    0.0000 </r>
       <r>   11.7175    0.0000 </r>
       <r>   11.7284    0.0000 </r>
      </set>
      <set comment="kpoint 28">
       <r>  -20.9045    1.0000 </r>
       <r>  -20.9040    1.0000 </r>
       <r>  -20.8947    1.0000 </r>
       <r>  -20.8932    1.0000 </r>
       <r>  -17.9576    1.0000 </r>
       <r>  -17.9543    1.0000 </r>
       <r>  -17.9430    1.0000 </r>
       <r>  -17.9429    1.0000 </r>
       <r>  -17.9258    1.0000 </r>
       <r>  -17.9257    1.0000 </r>
       <r>   -8.1576    1.0000 </r>
       <r>   -8.1570    1.0000 </r>
       <r>   -7.7798    1.0000 </r>
       <r>   -7.7776    1.0000 </r>
       <r>   -3.3201    1.0000 </r>
       <r>   -3.2595    1.0000 </r>
[...]
       <r>     4.6366     0.0000     0.0000 </r>
       <r>     4.7647     0.0000     0.0000 </r>
       <r>     4.8929     0.0000     0.0000 </r>
       <r>     5.0210     0.0000     0.0000 </r>
       <r>     5.1491     0.0000     0.0000 </r>
       <r>     5.2772     0.0000     0.0000 </r>
       <r>     5.4053     0.0000     0.0000 </r>
       <r>     5.5334     0.0000     0.0000 </r>
       <r>     5.6615     0.0000     0.0000 </r>
       <r>     5.7896     0.0000     0.0000 </r>
       <r>     5.9177     0.0000     0.0000 </r>
       <r>     6.0458     0.0000     0.0000 </r>
       <r>     6.1739     0.0000     0.0000 </r>
       <r>     6.3020     0.0000     0.0000 </r>
       <r>     6.4301     0.0000     0.0000 </r>
       <r>     6.5582     0.0000     0.0000 </r>
       <r>     6.6863     0.0000     0.0000 </r>
       <r>     6.8144     0.0000     0.0000 </r>
       <r>     6.9425     0.0000     0.0000 </r>
       <r>     7.0706     0.0000     0.0000 </r>
       <r>     7.1987     0.0000     0.0000 </r>
       <r>     7.3268     0.0000     0.0000 </r>
       <r>     7.4549     0.0000     0.0000 </r>
       <r>     7.5830     0.0000     0.0000 </r>
       <r>     7.7112     0.0000     0.0000 </r>
       <r>     7.8393     0.0000     0.0000 </r>
       <r>     7.9674     0.0000     0.0000 </r>
       <r>     8.0955     0.0000     0.0000 </r>
       <r>     8.2236     0.0000     0.0000 </r>
       <r>     8.3517     0.0000     0.0000 </r>
       <r>     8.4798     0.0000     0.0000 </r>
       <r>     8.6079     0.0000     0.0000 </r>
       <r>     8.7360     0.0000     0.0000 </r>
       <r>     8.8641     0.0000     0.0000 </r>
       <r>     8.9922     0.0000     0.0000 </r>
       <r>     9.1203     0.0000     0.0000 </r>
       <r>     9.2484     0.0000     0.0000 </r>
       <r>     9.3765     0.0000     0.0000 </r>
       <r>     9.5046     0.0000     0.0000 </r>
       <r>     9.6327     0.0000     0.0000 </r>
       <r>     9.7608     0.0000     0.0000 </r>
       <r>     9.8889     0.0000     0.0000 </r>
       <r>    10.0170     0.0000     0.0000 </r>
       <r>    10.1451     0.0000     0.0000 </r>
       <r>    10.2732     0.0000     0.0000 </r>
       <r>    10.4013     0.0000     0.0000 </r>
       <r>    10.5294     0.0000     0.0000 </r>
       <r>    10.6576     0.0000     0.0000 </r>
       <r>    10.7857     0.0000     0.0000 </r>
       <r>    10.9138     0.0000     0.0000 </r>
       <r>    11.0419     0.0000     0.0000 </r>
       <r>    11.1700     0.0000     0.0000 </r>
       <r>    11.2981     0.0000     0.0000 </r>
       <r>    11.4262     0.0000     0.0000 </r>
       <r>    11.5543     0.0000     0.0000 </r>
       <r>    11.6824     0.0000     0.0000 </r>
       <r>    11.8105     0.0000     0.0000 </r>
       <r>    11.9386     0.0000     0.0000 </r>
       <r>    12.0667     0.0000     0.0000 </r>
       <r>    12.1948     0.0000     0.0000 </r>
       <r>    12.3229     0.0000     0.0000 </r>
       <r>    12.4510     0.0000     0.0000 </r>
       <r>    12.5791     0.0000     0.0000 </r>
       <r>    12.7072     0.0000     0.0000 </r>
       <r>    12.8353     0.0000     0.0000 </r>
       <r>    12.9634     0.0000     0.0000 </r>
       <r>    13.0915     0.0000     0.0000 </r>
       <r>    13.2196     0.0000     0.0000 </r>
       <r>    13.3477     0.0000     0.0000 </r>
       <r>    13.4759     0.0000     0.0000 </r>
       <r>    13.6040     0.0000     0.0000 </r>
       <r>    13.7321     0.0000     0.0000 </r>
       <r>    13.8602     0.0000     0.0000 </r>
       <r>    13.9883     0.0000     0.0000 </r>
       <r>    14.1164     0.0000     0.0000 </r>
       <r>    14.2445     0.0000     0.0000 </r>
       <r>    14.3726     0.0000     0.0000 </r>
       <r>    14.5007     0.0000     0.0000 </r>
       <r>    14.6288     0.0000     0.0000 </r>
       <r>    14.7569     0.0000     0.0000 </r>
       <r>    14.8850     0.0000     0.0000 </r>
       <r>    15.0131     0.0000     0.0000 </r>
       <r>    15.1412     0.0000     0.0000 </r>
       <r>    15.2693     0.0000     0.0000 </r>
       <r>    15.3974     0.0000     0.0000 </r>
       <r>    15.5255     0.0000     0.0000 </r>
      </set>
      <set comment="spin 4">
       <r>   -22.9058     0.0000     0.0000 </r>
       <r>   -22.7777     0.0000     0.0000 </r>
       <r>   -22.6496     0.0000     0.0000 </r>
       <r>   -22.5215     0.0000     0.0000 </r>
       <r>   -22.3934     0.0000     0.0000 </r>
       <r>   -22.2653     0.0000     0.0000 </r>
       <r>   -22.1372     0.0000     0.0000 </r>
       <r>   -22.0091     0.0000     0.0000 </r>
       <r>   -21.8810     0.0000     0.0000 </r>
       <r>   -21.7529     0.0000     0.0000 </r>
       <r>   -21.6248     0.0000     0.0000 </r>
       <r>   -21.4967     0.0000     0.0000 </r>
       <r>   -21.3686     0.0000     0.0000 </r>
       <r>   -21.2405     0.0000     0.0000 </r>
       <r>   -21.1124     0.0000     0.0000 </r>
       <r>   -20.9842     0.0000     0.0000 </r>
       <r>   -20.8561     0.0000     0.0000 </r>
       <r>   -20.7280     0.0000     0.0000 </r>
       <r>   -20.5999     0.0000     0.0000 </r>
       <r>   -20.4718     0.0000     0.0000 </r>
       <r>   -20.3437     0.0000     0.0000 </r>
       <r>   -20.2156     0.0000     0.0000 </r>
       <r>   -20.0875     0.0000     0.0000 </r>
       <r>   -19.9594     0.0000     0.0000 </r>
       <r>   -19.8313     0.0000     0.0000 </r>
       <r>   -19.7032     0.0000     0.0000 </r>
       <r>   -19.5751     0.0000     0.0000 </r>
       <r>   -19.4470     0.0000     0.0000 </r>
       <r>   -19.3189     0.0000     0.0000 </r>
       <r>   -19.1908     0.0000     0.0000 </r>
       <r>   -19.0627     0.0000     0.0000 </r>
       <r>   -18.9346     0.0000     0.0000 </r>
       <r>   -18.8065     0.0000     0.0000 </r>
       <r>   -18.6784     0.0000     0.0000 </r>
       <r>   -18.5503     0.0000     0.0000 </r>
       <r>   -18.4222     0.0000     0.0000 </r>
       <r>   -18.2941     0.0000     0.0000 </r>
       <r>   -18.1659     0.0000     0.0000 </r>
       <r>   -18.0378     0.0000     0.0000 </r>
       <r>   -17.9097     0.0000     0.0000 </r>
       <r>   -17.7816     0.0000     0.0000 </r>
       <r>   -17.6535     0.0000     0.0000 </r>
       <r>   -17.5254     0.0000     0.0000 </r>
       <r>   -17.3973     0.0000     0.0000 </r>
       <r>   -17.2692     0.0000     0.0000 </r>
       <r>   -17.1411     0.0000     0.0000 </r>
       <r>   -17.0130     0.0000     0.0000 </r>
       <r>   -16.8849     0.0000     0.0000 </r>
       <r>   -16.7568     0.0000     0.0000 </r>
       <r>   -16.6287     0.0000     0.0000 </r>
       <r>   -16.5006     0.0000     0.0000 </r>
       <r>   -16.3725     0.0000     0.0000 </r>
       <r>   -16.2444     0.0000     0.0000 </r>
       <r>   -16.1163     0.0000     0.0000 </r>
       <r>   -15.9882     0.0000     0.0000 </r>
       <r>   -15.8601     0.0000     0.0000 </r>
       <r>   -15.7320     0.0000     0.0000 </r>
       <r>   -15.6039     0.0000     0.0000 </r>
       <r>   -15.4758     0.0000     0.0000 </r>
       <r>   -15.3477     0.0000     0.0000 </r>
       <r>   -15.2195     0.0000     0.0000 </r>
       <r>   -15.0914     0.0000     0.0000 </r>
       <r>   -14.9633     0.0000     0.0000 </r>
       <r>   -14.8352     0.0000     0.0000 </r>
       <r>   -14.7071     0.0000     0.0000 </r>
       <r>   -14.5790     0.0000     0.0000 </r>
       <r>   -14.4509     0.0000     0.0000 </r>
       <r>   -14.3228     0.0000     0.0000 </r>
       <r>   -14.1947     0.0000     0.0000 </r>
       <r>   -14.0666     0.0000     0.0000 </r>
       <r>   -13.9385     0.0000     0.0000 </r>
       <r>   -13.8104     0.0000     0.0000 </r>
       <r>   -13.6823     0.0000     0.0000 </r>
       <r>   -13.5542     0.0000     0.0000 </r>
       <r>   -13.4261     0.0000     0.0000 </r>
       <r>   -13.2980     0.0000     0.0000 </r>
       <r>   -13.1699     0.0000     0.0000 </r>
       <r>   -13.0418     0.0000     0.0000 </r>
       <r>   -12.9137     0.0000     0.0000 </r>
       <r>   -12.7856     0.0000     0.0000 </r>
       <r>   -12.6575     0.0000     0.0000 </r>
       <r>   -12.5294     0.0000     0.0000 </r>
       <r>   -12.4012     0.0000     0.0000 </r>
       <r>   -12.2731     0.0000     0.0000 </r>
       <r>   -12.1450     0.0000     0.0000 </r>
       <r>   -12.0169     0.0000     0.0000 </r>
       <r>   -11.8888     0.0000     0.0000 </r>
       <r>   -11.7607     0.0000     0.0000 </r>
       <r>   -11.6326     0.0000     0.0000 </r>
       <r>   -11.5045     0.0000     0.0000 </r>
       <r>   -11.3764     0.0000     0.0000 </r>
       <r>   -11.2483     0.0000     0.0000 </r>
       <r>   -11.1202     0.0000     0.0000 </r>
       <r>   -10.9921     0.0000     0.0000 </r>
       <r>   -10.8640     0.0000     0.0000 </r>
       <r>   -10.7359     0.0000     0.0000 </r>
       <r>   -10.6078     0.0000     0.0000 </r>
       <r>   -10.4797     0.0000     0.0000 </r>
       <r>   -10.3516     0.0000     0.0000 </r>
       <r>   -10.2235     0.0000     0.0000 </r>
       <r>   -10.0954     0.0000     0.0000 </r>
       <r>    -9.9673     0.0000     0.0000 </r>
       <r>    -9.8392     0.0000     0.0000 </r>
       <r>    -9.7111     0.0000     0.0000 </r>
       <r>    -9.5830     0.0000     0.0000 </r>
       <r>    -9.4548     0.0000     0.0000 </r>
       <r>    -9.3267     0.0000     0.0000 </r>
       <r>    -9.1986     0.0000     0.0000 </r>
       <r>    -9.0705     0.0000     0.0000 </r>
       <r>    -8.9424     0.0000     0.0000 </r>
       <r>    -8.8143     0.0000     0.0000 </r>
       <r>    -8.6862     0.0000     0.0000 </r>
       <r>    -8.5581     0.0000     0.0000 </r>
       <r>    -8.4300     0.0000     0.0000 </r>
       <r>    -8.3019     0.0000     0.0000 </r>
       <r>    -8.1738     0.0000     0.0000 </r>
       <r>    -8.0457     0.0000     0.0000 </r>
       <r>    -7.9176     0.0000     0.0000 </r>
       <r>    -7.7895     0.0000     0.0000 </r>
       <r>    -7.6614     0.0000     0.0000 </r>
       <r>    -7.5333     0.0000     0.0000 </r>
       <r>    -7.4052     0.0000     0.0000 </r>
       <r>    -7.2771     0.0000     0.0000 </r>
       <r>    -7.1490     0.0000     0.0000 </r>
       <r>    -7.0209     0.0000     0.0000 </r>
       <r>    -6.8928     0.0000     0.0000 </r>
       <r>    -6.7647     0.0000     0.0000 </r>
       <r>    -6.6365     0.0000     0.0000 </r>
       <r>    -6.5084     0.0000     0.0000 </r>
       <r>    -6.3803     0.0000     0.0000 </r>
       <r>    -6.2522     0.0000     0.0000 </r>
       <r>    -6.1241     0.0000     0.0000 </r>
       <r>    -5.9960     0.0000     0.0000 </r>
       <r>    -5.8679     0.0000     0.0000 </r>
       <r>    -5.7398     0.0000     0.0000 </r>
       <r>    -5.6117     0.0000     0.0000 </r>
       <r>    -5.4836     0.0000     0.0000 </r>
       <r>    -5.3555     0.0000     0.0000 </r>
       <r>    -5.2274     0.0000     0.0000 </r>
       <r>    -5.0993     0.0000     0.0000 </r>
       <r>    -4.9712     0.0000     0.0000 </r>
       <r>    -4.8431     0.0000     0.0000 </r>
       <r>    -4.7150     0.0000     0.0000 </r>
       <r>    -4.5869     0.0000     0.0000 </r>
       <r>    -4.4588     0.0000     0.0000 </r>
       <r>    -4.3307     0.0000     0.0000 </r>
       <r>    -4.2026     0.0000     0.0000 </r>
       <r>    -4.0745     0.0000     0.0000 </r>
       <r>    -3.9464     0.0000     0.0000 </r>
       <r>    -3.8182     0.0000     0.0000 </r>
       <r>    -3.6901     0.0000     0.0000 </r>
       <r>    -3.5620     0.0000     0.0000 </r>
       <r>    -3.4339     0.0000     0.0000 </r>
       <r>    -3.3058     0.0000     0.0000 </r>
       <r>    -3.1777     0.0000     0.0000 </r>
       <r>    -3.0496     0.0000     0.0000 </r>
       <r>    -2.9215     0.0000     0.0000 </r>
       <r>    -2.7934     0.0000     0.0000 </r>
       <r>    -2.6653     0.0000     0.0000 </r>
       <r>    -2.5372     0.0000     0.0000 </r>
       <r>    -2.4091     0.0000     0.0000 </r>
       <r>    -2.2810     0.0000     0.0000 </r>
       <r>    -2.1529     0.0000     0.0000 </r>
       <r>    -2.0248     0.0000     0.0000 </r>
       <r>    -1.8967     0.0000     0.0000 </r>
       <r>    -1.7686     0.0000     0.0000 </r>
       <r>    -1.6405     0.0000     0.0000 </r>
       <r>    -1.5124     0.0000     0.0000 </r>
       <r>    -1.3843     0.0000     0.0000 </r>
       <r>    -1.2562     0.0000     0.0000 </r>
       <r>    -1.1281     0.0000     0.0000 </r>
       <r>    -1.0000     0.0000     0.0000 </r>
       <r>    -0.8718     0.0000     0.0000 </r>
       <r>    -0.7437     0.0000     0.0000 </r>
       <r>    -0.6156     0.0000     0.0000 </r>
       <r>    -0.4875     0.0000     0.0000 </r>
       <r>    -0.3594     0.0000     0.0000 </r>
       <r>    -0.2313     0.0000     0.0000 </r>
       <r>    -0.1032     0.0000     0.0000 </r>
       <r>     0.0249     0.0000     0.0000 </r>
       <r>     0.1530     0.0000     0.0000 </r>
       <r>     0.2811     0.0000     0.0000 </r>
       <r>     0.4092     0.0000     0.0000 </r>
       <r>     0.5373     0.0000     0.0000 </r>
       <r>     0.6654     0.0000     0.0000 </r>
       <r>     0.7935     0.0000     0.0000 </r>
       <r>     0.9216     0.0000     0.0000 </r>
       <r>     1.0497     0.0000     0.0000 </r>
       <r>     1.1778     0.0000     0.0000 </r>
       <r>     1.3059     0.0000     0.0000 </r>
       <r>     1.4340     0.0000     0.0000 </r>
       <r>     1.5621     0.0000     0.0000 </r>
       <r>     1.6902     0.0000     0.0000 </r>
       <r>     1.8183     0.0000     0.0000 </r>
       <r>     1.9465     0.0000     0.0000 </r>
       <r>     2.0746     0.0000     0.0000 </r>
       <r>     2.2027     0.0000     0.0000 </r>
       <r>     2.3308     0.0000     0.0000 </r>
       <r>     2.4589     0.0000     0.0000 </r>
       <r>     2.5870     0.0000     0.0000 </r>
       <r>     2.7151     0.0000     0.0000 </r>
       <r>     2.8432     0.0000     0.0000 </r>
       <r>     2.9713     0.0000     0.0000 </r>
       <r>     3.0994     0.0000     0.0000 </r>
       <r>     3.2275     0.0000     0.0000 </r>
       <r>     3.3556     0.0000     0.0000 </r>
       <r>     3.4837     0.0000     0.0000 </r>
       <r>     3.6118     0.0000     0.0000 </r>
       <r>     3.7399     0.0000     0.0000 </r>
       <r>     3.8680     0.0000     0.0000 </r>
       <r>     3.9961     0.0000     0.0000 </r>
       <r>     4.1242     0.0000     0.0000 </r>
       <r>     4.2523     0.0000     0.0000 </r>
       <r>     4.3804     0.0000     0.0000 </r>
       <r>     4.5085     0.0000     0.0000 </r>
       <r>     4.6366     0.0000     0.0000 </r>
       <r>     4.7647     0.0000     0.0000 </r>
       <r>     4.8929     0.0000     0.0000 </r>
       <r>     5.0210     0.0000     0.0000 </r>
       <r>     5.1491     0.0000     0.0000 </r>
       <r>     5.2772     0.0000     0.0000 </r>
       <r>     5.4053     0.0000     0.0000 </r>
       <r>     5.5334     0.0000     0.0000 </r>
       <r>     5.6615     0.0000     0.0000 </r>
       <r>     5.7896     0.0000     0.0000 </r>
       <r>     5.9177     0.0000     0.0000 </r>
       <r>     6.0458     0.0000     0.0000 </r>
       <r>     6.1739     0.0000     0.0000 </r>
       <r>     6.3020     0.0000     0.0000 </r>
       <r>     6.4301     0.0000     0.0000 </r>
       <r>     6.5582     0.0000     0.0000 </r>
       <r>     6.6863     0.0000     0.0000 </r>
       <r>     6.8144     0.0000     0.0000 </r>
       <r>     6.9425     0.0000     0.0000 </r>
       <r>     7.0706     0.0000     0.0000 </r>
       <r>     7.1987     0.0000     0.0000 </r>
       <r>     7.3268     0.0000     0.0000 </r>
       <r>     7.4549     0.0000     0.0000 </r>
       <r>     7.5830     0.0000     0.0000 </r>
       <r>     7.7112     0.0000     0.0000 </r>
       <r>     7.8393     0.0000     0.0000 </r>
       <r>     7.9674     0.0000     0.0000 </r>
       <r>     8.0955     0.0000     0.0000 </r>
       <r>     8.2236     0.0000     0.0000 </r>
       <r>     8.3517     0.0000     0.0000 </r>
       <r>     8.4798     0.0000     0.0000 </r>
       <r>     8.6079     0.0000     0.0000 </r>
       <r>     8.7360     0.0000     0.0000 </r>
       <r>     8.8641     0.0000     0.0000 </r>
       <r>     8.9922     0.0000     0.0000 </r>
       <r>     9.1203     0.0000     0.0000 </r>
       <r>     9.2484     0.0000     0.0000 </r>
       <r>     9.3765     0.0000     0.0000 </r>
       <r>     9.5046     0.0000     0.0000 </r>
       <r>     9.6327     0.0000     0.0000 </r>
       <r>     9.7608     0.0000     0.0000 </r>
       <r>     9.8889     0.0000     0.0000 </r>
       <r>    10.0170     0.0000     0.0000 </r>
       <r>    10.1451     0.0000     0.0000 </r>
       <r>    10.2732     0.0000     0.0000 </r>
       <r>    10.4013     0.0000     0.0000 </r>
       <r>    10.5294     0.0000     0.0000 </r>
       <r>    10.6576     0.0000     0.0000 </r>
       <r>    10.7857     0.0000     0.0000 </r>
       <r>    10.9138     0.0000     0.0000 </r>
       <r>    11.0419     0.0000     0.0000 </r>
       <r>    11.1700     0.0000     0.0000 </r>
       <r>    11.2981     0.0000     0.0000 </r>
       <r>    11.4262     0.0000     0.0000 </r>
       <r>    11.5543     0.0000     0.0000 </r>
       <r>    11.6824     0.0000     0.0000 </r>
       <r>    11.8105     0.0000     0.0000 </r>
       <r>    11.9386     0.0000     0.0000 </r>
       <r>    12.0667     0.0000     0.0000 </r>
       <r>    12.1948     0.0000     0.0000 </r>
       <r>    12.3229     0.0000     0.0000 </r>
       <r>    12.4510     0.0000     0.0000 </r>
       <r>    12.5791     0.0000     0.0000 </r>
       <r>    12.7072     0.0000     0.0000 </r>
       <r>    12.8353     0.0000     0.0000 </r>
       <r>    12.9634     0.0000     0.0000 </r>
       <r>    13.0915     0.0000     0.0000 </r>
       <r>    13.2196     0.0000     0.0000 </r>
       <r>    13.3477     0.0000     0.0000 </r>
       <r>    13.4759     0.0000     0.0000 </r>
       <r>    13.6040     0.0000     0.0000 </r>
       <r>    13.7321     0.0000     0.0000 </r>
       <r>    13.8602     0.0000     0.0000 </r>
       <r>    13.9883     0.0000     0.0000 </r>
       <r>    14.1164     0.0000     0.0000 </r>
       <r>    14.2445     0.0000     0.0000 </r>
       <r>    14.3726     0.0000     0.0000 </r>
       <r>    14.5007     0.0000     0.0000 </r>
       <r>    14.6288     0.0000     0.0000 </r>
       <r>    14.7569     0.0000     0.0000 </r>
       <r>    14.8850     0.0000     0.0000 </r>
       <r>    15.0131     0.0000     0.0000 </r>
       <r>    15.1412     0.0000     0.0000 </r>
       <r>    15.2693     0.0000     0.0000 </r>
       <r>    15.3974     0.0000     0.0000 </r>
       <r>    15.5255     0.0000     0.0000 </r>
      </set>
     </set>
    </array>
   </total>
  </dos>
 </calculation>
 <structure name="finalpos" >
  <crystal>
   <varray name="basis" >
    <v>       4.30014086       0.00000000       0.00000000 </v>
    <v>       0.00000000       4.30014086       0.00000000 </v>
    <v>       0.00000000       0.00000000       6.14586115 </v>
   </varray>
   <i name="volume">    113.64441771 </i>
   <varray name="rec_basis" >
    <v>       0.23255052       0.00000000       0.00000000 </v>
    <v>       0.00000000       0.23255052       0.00000000 </v>
    <v>       0.00000000       0.00000000       0.16271113 </v>
   </varray>
  </crystal>
  <varray name="positions" >
   <v>       0.50000000       0.00000000       0.72573602 </v>
   <v>       0.00000000       0.50000000       0.27426400 </v>
   <v>       0.00000000       0.00000000       0.00000000 </v>
   <v>       0.50000000       0.50000000       0.50000000 </v>
  </varray>
 </structure>
</modeling>
