    4    4    1    1
  0.2841110E+02  0.4300141E-09  0.4300141E-09  0.6145861E-09  0.5000000E-15
  1.000000000000000E-004
  CAR 
 Sn                                      
     26    245     48
 
  0.0000000E+00  0.0000000E+00  0.0000000E+00  0.4081633E-02
    1      -20.912025   1.000000
    2      -20.912024   1.000000
    3      -20.910096   1.000000
    4      -20.910095   1.000000
    5      -17.969507   1.000000
    6      -17.969505   1.000000
    7      -17.949911   1.000000
    8      -17.949910   1.000000
    9      -17.941879   1.000000
   10      -17.941878   1.000000
   11       -9.150371   1.000000
   12       -9.150371   1.000000
   13       -7.397511   1.000000
   14       -7.397510   1.000000
   15       -3.558484   1.000000
   16       -3.558484   1.000000
   17        0.279130   1.000000
   18        0.279131   1.000000
   19        0.568089   1.000000
   20        0.568090   1.000000
   21        1.852474   1.000000
   22        1.852481   1.000000
   23        2.167429   1.000000
   24        2.167429   1.000000
   25        3.322884   0.000010
   26        3.322886   0.000010
   27        3.624003   0.000000
   28        3.624005   0.000000
   29        4.170582   0.000000
   30        4.170585   0.000000
   31        4.391430   0.000000
   32        4.391435   0.000000
   33        6.059587   0.000000
   34        6.059587   0.000000
   35        6.275454   0.000000
   36        6.275454   0.000000
   37        6.415069   0.000000
   38        6.415073   0.000000
   39        8.891624   0.000000
   40        8.891626   0.000000
   41       11.146671   0.000000
   42       11.146673   0.000000
   43       11.592256   0.000000
   44       11.592257   0.000000
   45       12.071609   0.000000
   46       12.071613   0.000000
   47       12.191410   0.000000
   48       12.191421   0.000000
 
  0.1428571E+00  0.0000000E+00  0.0000000E+00  0.4081633E-02
    1      -20.912904   1.000000
    2      -20.912053   1.000000
    3      -20.910198   1.000000
    4      -20.908309   1.000000
    5      -17.970965   1.000000
    6      -17.966292   1.000000
    7      -17.950648   1.000000
    8      -17.949233   1.000000
    9      -17.942604   1.000000
   10      -17.941181   1.000000
   11       -9.032272   1.000000
   12       -9.032133   1.000000
   13       -7.394460   1.000000
   14       -7.390521   1.000000
   15       -3.554057   1.000000
   16       -3.459808   1.000000
   17       -0.273959   1.000000
   18       -0.109647   1.000000
   19        0.467554   1.000000
   20        0.510371   1.000000
   21        0.789088   1.000000
   22        0.921984   1.000000
   23        2.063679   1.000000
   24        2.406867   1.000000
   25        3.069563   0.998071
   26        3.215723   0.106667
   27        3.726443   0.000000
   28        3.762680   0.000000
   29        4.467122   0.000000
   30        4.542965   0.000000
   31        5.283695   0.000000
   32        5.326533   0.000000
   33        6.132329   0.000000
   34        6.210601   0.000000
   35        6.308833   0.000000
   36        6.359295   0.000000
   37        6.970911   0.000000
   38        7.169342   0.000000
   39        9.662208   0.000000
   40        9.677819   0.000000
   41       10.224583   0.000000
   42       10.507625   0.000000
   43       10.643228   0.000000
   44       10.690499   0.000000
   45       11.470088   0.000000
   46       11.487909   0.000000
   47       11.615389   0.000000
   48       11.676602   0.000000
 
  0.2857143E+00  0.0000000E+00  0.0000000E+00  0.4081633E-02
    1      -20.913426   1.000000
    2      -20.912604   1.000000
    3      -20.909114   1.000000
    4      -20.906521   1.000000
    5      -17.969900   1.000000
    6      -17.964277   1.000000
    7      -17.951376   1.000000
    8      -17.950890   1.000000
    9      -17.940433   1.000000
   10      -17.940131   1.000000
   11       -8.698377   1.000000
   12       -8.698090   1.000000
   13       -7.457233   1.000000
   14       -7.451809   1.000000
   15       -3.439704   1.000000
   16       -3.275365   1.000000
   17       -1.058790   1.000000
   18       -1.049474   1.000000
   19       -0.656533   1.000000
   20       -0.117367   1.000000
   21        0.809229   1.000000
   22        0.877247   1.000000
   23        1.161210   1.000000
   24        1.584736   1.000000
   25        2.804017   1.000000
   26        2.917622   1.000000
   27        4.061620   0.000000
   28        4.107728   0.000000
   29        4.924453   0.000000
   30        5.091153   0.000000
   31        6.454295   0.000000
   32        6.532278   0.000000
   33        6.696466   0.000000
   34        6.751460   0.000000
   35        7.095646   0.000000
   36        7.150177   0.000000
   37        7.997491   0.000000
   38        8.308014   0.000000
   39        9.123430   0.000000
   40        9.371129   0.000000
   41        9.542601   0.000000
   42        9.627834   0.000000
   43       10.324977   0.000000
   44       10.507121   0.000000
   45       10.656004   0.000000
   46       10.708979   0.000000
   47       11.097517   0.000000
   48       11.124471   0.000000
 
  0.4285714E+00  0.0000000E+00  0.0000000E+00  0.4081633E-02
    1      -20.913492   1.000000
    2      -20.913183   1.000000
    3      -20.907404   1.000000
    4      -20.906195   1.000000
    5      -17.967594   1.000000
    6      -17.965160   1.000000
    7      -17.952437   1.000000
    8      -17.952288   1.000000
    9      -17.938341   1.000000
   10      -17.938044   1.000000
   11       -8.227859   1.000000
   12       -8.227025   1.000000
   13       -7.725473   1.000000
   14       -7.722418   1.000000
   15       -3.080637   1.000000
   16       -2.925925   1.000000
   17       -2.193846   1.000000
   18       -2.093726   1.000000
   19       -0.607726   1.000000
   20       -0.126126   1.000000
   21        0.113625   1.000000
   22        0.567505   1.000000
   23        1.178995   1.000000
   24        1.190695   1.000000
   25        2.547507   1.000000
   26        2.585801   1.000000
   27        4.360322   0.000000
   28        4.381062   0.000000
   29        5.356567   0.000000
   30        5.448391   0.000000
   31        7.108350   0.000000
   32        7.164562   0.000000
   33        7.364437   0.000000
   34        7.418531   0.000000
   35        7.546487   0.000000
   36        7.583345   0.000000
   37        7.994881   0.000000
   38        8.278902   0.000000
   39        8.592891   0.000000
   40        8.645344   0.000000
   41        8.732983   0.000000
   42        8.846827   0.000000
   43       10.483570   0.000000
   44       10.530141   0.000000
   45       10.593436   0.000000
   46       10.622500   0.000000
   47       11.066833   0.000000
   48       11.109986   0.000000
 
 -0.4285714E+00  0.0000000E+00  0.0000000E+00  0.4081633E-02
    1      -20.913493   1.000000
    2      -20.913183   1.000000
    3      -20.907404   1.000000
    4      -20.906195   1.000000
    5      -17.967593   1.000000
    6      -17.965161   1.000000
    7      -17.952438   1.000000
    8      -17.952287   1.000000
    9      -17.938341   1.000000
   10      -17.938044   1.000000
   11       -8.227858   1.000000
   12       -8.227025   1.000000
   13       -7.725473   1.000000
   14       -7.722417   1.000000
   15       -3.080636   1.000000
   16       -2.925926   1.000000
   17       -2.193847   1.000000
   18       -2.093725   1.000000
   19       -0.607724   1.000000
   20       -0.126127   1.000000
   21        0.113624   1.000000
   22        0.567506   1.000000
   23        1.178996   1.000000
   24        1.190695   1.000000
   25        2.547506   1.000000
   26        2.585803   1.000000
   27        4.360322   0.000000
   28        4.381062   0.000000
   29        5.356564   0.000000
   30        5.448395   0.000000
   31        7.108349   0.000000
   32        7.164563   0.000000
   33        7.364436   0.000000
   34        7.418532   0.000000
   35        7.546486   0.000000
   36        7.583346   0.000000
   37        7.994881   0.000000
   38        8.278902   0.000000
   39        8.592891   0.000000
   40        8.645343   0.000000
   41        8.732982   0.000000
   42        8.846829   0.000000
   43       10.483573   0.000000
   44       10.530138   0.000000
   45       10.593437   0.000000
   46       10.622499   0.000000
   47       11.066830   0.000000
   48       11.109989   0.000000
 
 -0.2857143E+00  0.0000000E+00  0.0000000E+00  0.4081633E-02
    1      -20.913426   1.000000
    2      -20.912604   1.000000
    3      -20.909114   1.000000
    4      -20.906521   1.000000
    5      -17.969899   1.000000
    6      -17.964278   1.000000
    7      -17.951375   1.000000
    8      -17.950891   1.000000
    9      -17.940433   1.000000
   10      -17.940131   1.000000
   11       -8.698377   1.000000
   12       -8.698091   1.000000
   13       -7.457233   1.000000
   14       -7.451808   1.000000
   15       -3.439703   1.000000
   16       -3.275366   1.000000
   17       -1.058790   1.000000
   18       -1.049473   1.000000
   19       -0.656533   1.000000
   20       -0.117367   1.000000
   21        0.809230   1.000000
   22        0.877246   1.000000
   23        1.161209   1.000000
   24        1.584737   1.000000
   25        2.804016   1.000000
   26        2.917623   1.000000
   27        4.061619   0.000000
   28        4.107729   0.000000
   29        4.924451   0.000000
   30        5.091156   0.000000
   31        6.454295   0.000000
   32        6.532278   0.000000
   33        6.696465   0.000000
   34        6.751461   0.000000
   35        7.095647   0.000000
   36        7.150177   0.000000
   37        7.997492   0.000000
   38        8.308013   0.000000
   39        9.123431   0.000000
   40        9.371128   0.000000
   41        9.542600   0.000000
   42        9.627833   0.000000
   43       10.324978   0.000000
   44       10.507121   0.000000
   45       10.656006   0.000000
   46       10.708976   0.000000
   47       11.097516   0.000000
   48       11.124471   0.000000
 
 -0.1428571E+00  0.0000000E+00  0.0000000E+00  0.4081633E-02
    1      -20.912905   1.000000
    2      -20.912053   1.000000
    3      -20.910198   1.000000
    4      -20.908308   1.000000
    5      -17.970964   1.000000
    6      -17.966293   1.000000
    7      -17.950648   1.000000
    8      -17.949235   1.000000
    9      -17.942604   1.000000
   10      -17.941181   1.000000
   11       -9.032272   1.000000
   12       -9.032133   1.000000
   13       -7.394460   1.000000
   14       -7.390520   1.000000
   15       -3.554056   1.000000
   16       -3.459808   1.000000
   17       -0.273958   1.000000
   18       -0.109648   1.000000
   19        0.467553   1.000000
   20        0.510372   1.000000
   21        0.789087   1.000000
   22        0.921986   1.000000
   23        2.063679   1.000000
   24        2.406867   1.000000
   25        3.069562   0.998071
   26        3.215724   0.106664
   27        3.726442   0.000000
   28        3.762681   0.000000
   29        4.467121   0.000000
   30        4.542965   0.000000
   31        5.283697   0.000000
   32        5.326532   0.000000
   33        6.132328   0.000000
   34        6.210601   0.000000
   35        6.308833   0.000000
   36        6.359296   0.000000
   37        6.970914   0.000000
   38        7.169340   0.000000
   39        9.662207   0.000000
   40        9.677819   0.000000
   41       10.224584   0.000000
   42       10.507625   0.000000
   43       10.643227   0.000000
   44       10.690500   0.000000
   45       11.470087   0.000000
   46       11.487907   0.000000
   47       11.615389   0.000000
   48       11.676604   0.000000
 
  0.0000000E+00  0.1428571E+00  0.0000000E+00  0.4081633E-02
    1      -20.912904   1.000000
    2      -20.912053   1.000000
    3      -20.910198   1.000000
    4      -20.908309   1.000000
    5      -17.970965   1.000000
    6      -17.966292   1.000000
    7      -17.950648   1.000000
    8      -17.949233   1.000000
    9      -17.942604   1.000000
   10      -17.941181   1.000000
   11       -9.032272   1.000000
   12       -9.032133   1.000000
   13       -7.394460   1.000000
   14       -7.390521   1.000000
   15       -3.554056   1.000000
   16       -3.459808   1.000000
   17       -0.273959   1.000000
   18       -0.109647   1.000000
   19        0.467554   1.000000
   20        0.510371   1.000000
   21        0.789088   1.000000
   22        0.921985   1.000000
   23        2.063679   1.000000
   24        2.406867   1.000000
   25        3.069563   0.998071
   26        3.215723   0.106668
   27        3.726443   0.000000
   28        3.762680   0.000000
   29        4.467121   0.000000
   30        4.542965   0.000000
   31        5.283695   0.000000
   32        5.326533   0.000000
   33        6.132329   0.000000
   34        6.210601   0.000000
   35        6.308834   0.000000
   36        6.359296   0.000000
   37        6.970911   0.000000
   38        7.169342   0.000000
   39        9.662208   0.000000
   40        9.677819   0.000000
   41       10.224583   0.000000
   42       10.507625   0.000000
   43       10.643228   0.000000
   44       10.690499   0.000000
   45       11.470088   0.000000
   46       11.487909   0.000000
   47       11.615389   0.000000
   48       11.676602   0.000000
 
  0.1428571E+00  0.1428571E+00  0.0000000E+00  0.4081633E-02
    1      -20.913404   1.000000
    2      -20.912364   1.000000
    3      -20.909515   1.000000
    4      -20.907373   1.000000
    5      -17.971213   1.000000
    6      -17.964597   1.000000
    7      -17.950740   1.000000
    8      -17.948528   1.000000
    9      -17.943292   1.000000
   10      -17.940827   1.000000
   11       -8.915271   1.000000
   12       -8.915088   1.000000
   13       -7.380229   1.000000
   14       -7.374939   1.000000
   15       -3.536312   1.000000
   16       -3.406807   1.000000
   17       -0.306644   1.000000
   18       -0.236597   1.000000
   19       -0.203912   1.000000
   20        0.099321   1.000000
   21        0.517823   1.000000
   22        0.583759   1.000000
   23        1.943662   1.000000
   24        1.963331   1.000000
   25        2.529087   1.000000
   26        2.682094   1.000000
   27        4.376350   0.000000
   28        4.410629   0.000000
   29        5.116233   0.000000
   30        5.362371   0.000000
   31        5.378255   0.000000
   32        5.385221   0.000000
   33        5.813675   0.000000
   34        5.821992   0.000000
   35        7.154669   0.000000
   36        7.284267   0.000000
   37        7.369195   0.000000
   38        7.651835   0.000000
   39        9.317698   0.000000
   40        9.411047   0.000000
   41        9.755092   0.000000
   42        9.983508   0.000000
   43       10.230870   0.000000
   44       10.236081   0.000000
   45       10.404753   0.000000
   46       10.412302   0.000000
   47       12.283402   0.000000
   48       12.362674   0.000000
 
  0.2857143E+00  0.1428571E+00  0.0000000E+00  0.4081633E-02
    1      -20.913993   1.000000
    2      -20.912678   1.000000
    3      -20.908441   1.000000
    4      -20.905756   1.000000
    5      -17.970333   1.000000
    6      -17.963289   1.000000
    7      -17.951387   1.000000
    8      -17.949175   1.000000
    9      -17.941594   1.000000
   10      -17.939488   1.000000
   11       -8.585853   1.000000
   12       -8.585574   1.000000
   13       -7.413244   1.000000
   14       -7.407179   1.000000
   15       -3.458085   1.000000
   16       -3.284106   1.000000
   17       -1.248358   1.000000
   18       -1.231213   1.000000
   19       -0.634311   1.000000
   20       -0.138715   1.000000
   21        0.355278   1.000000
   22        0.460327   1.000000
   23        1.149174   1.000000
   24        1.541510   1.000000
   25        1.920616   1.000000
   26        2.322072   1.000000
   27        4.687982   0.000000
   28        4.847862   0.000000
   29        5.320306   0.000000
   30        5.352761   0.000000
   31        5.736656   0.000000
   32        5.992729   0.000000
   33        7.210125   0.000000
   34        7.340945   0.000000
   35        7.747024   0.000000
   36        7.839768   0.000000
   37        8.081527   0.000000
   38        8.169095   0.000000
   39        8.385179   0.000000
   40        8.650261   0.000000
   41        8.727855   0.000000
   42        8.799889   0.000000
   43        9.956164   0.000000
   44       10.096774   0.000000
   45       11.435647   0.000000
   46       11.647951   0.000000
   47       11.761097   0.000000
   48       11.935809   0.000000
 
  0.4285714E+00  0.1428571E+00  0.0000000E+00  0.4081633E-02
    1      -20.914264   1.000000
    2      -20.912950   1.000000
    3      -20.907028   1.000000
    4      -20.905237   1.000000
    5      -17.968782   1.000000
    6      -17.964197   1.000000
    7      -17.952521   1.000000
    8      -17.949882   1.000000
    9      -17.939372   1.000000
   10      -17.937350   1.000000
   11       -8.127917   1.000000
   12       -8.126907   1.000000
   13       -7.643267   1.000000
   14       -7.639970   1.000000
   15       -3.154044   1.000000
   16       -2.998039   1.000000
   17       -2.341616   1.000000
   18       -2.249604   1.000000
   19       -0.508270   1.000000
   20       -0.037350   1.000000
   21        0.169489   1.000000
   22        0.589546   1.000000
   23        0.723623   1.000000
   24        0.783523   1.000000
   25        1.646380   1.000000
   26        2.116314   1.000000
   27        5.006520   0.000000
   28        5.130748   0.000000
   29        5.727712   0.000000
   30        5.794892   0.000000
   31        5.855557   0.000000
   32        6.144711   0.000000
   33        6.708295   0.000000
   34        7.009460   0.000000
   35        7.564176   0.000000
   36        7.638089   0.000000
   37        7.838576   0.000000
   38        7.909200   0.000000
   39        8.805159   0.000000
   40        8.937809   0.000000
   41        9.642795   0.000000
   42        9.912409   0.000000
   43       10.363999   0.000000
   44       10.520131   0.000000
   45       11.590219   0.000000
   46       11.739309   0.000000
   47       11.942280   0.000000
   48       11.988644   0.000000
 
 -0.4285714E+00  0.1428571E+00  0.0000000E+00  0.4081633E-02
    1      -20.914264   1.000000
    2      -20.912950   1.000000
    3      -20.907029   1.000000
    4      -20.905237   1.000000
    5      -17.968781   1.000000
    6      -17.964197   1.000000
    7      -17.952522   1.000000
    8      -17.949882   1.000000
    9      -17.939372   1.000000
   10      -17.937350   1.000000
   11       -8.127917   1.000000
   12       -8.126908   1.000000
   13       -7.643268   1.000000
   14       -7.639969   1.000000
   15       -3.154043   1.000000
   16       -2.998040   1.000000
   17       -2.341618   1.000000
   18       -2.249602   1.000000
   19       -0.508269   1.000000
   20       -0.037351   1.000000
   21        0.169488   1.000000
   22        0.589548   1.000000
   23        0.723622   1.000000
   24        0.783523   1.000000
   25        1.646380   1.000000
   26        2.116314   1.000000
   27        5.006519   0.000000
   28        5.130748   0.000000
   29        5.727713   0.000000
   30        5.794893   0.000000
   31        5.855556   0.000000
   32        6.144711   0.000000
   33        6.708294   0.000000
   34        7.009460   0.000000
   35        7.564176   0.000000
   36        7.638089   0.000000
   37        7.838577   0.000000
   38        7.909200   0.000000
   39        8.805158   0.000000
   40        8.937809   0.000000
   41        9.642796   0.000000
   42        9.912409   0.000000
   43       10.363999   0.000000
   44       10.520131   0.000000
   45       11.590220   0.000000
   46       11.739309   0.000000
   47       11.942278   0.000000
   48       11.988644   0.000000
 
 -0.2857143E+00  0.1428571E+00  0.0000000E+00  0.4081633E-02
    1      -20.913993   1.000000
    2      -20.912678   1.000000
    3      -20.908441   1.000000
    4      -20.905755   1.000000
    5      -17.970333   1.000000
    6      -17.963289   1.000000
    7      -17.951387   1.000000
    8      -17.949175   1.000000
    9      -17.941594   1.000000
   10      -17.939488   1.000000
   11       -8.585852   1.000000
   12       -8.585574   1.000000
   13       -7.413245   1.000000
   14       -7.407178   1.000000
   15       -3.458084   1.000000
   16       -3.284107   1.000000
   17       -1.248359   1.000000
   18       -1.231213   1.000000
   19       -0.634310   1.000000
   20       -0.138716   1.000000
   21        0.355278   1.000000
   22        0.460327   1.000000
   23        1.149173   1.000000
   24        1.541511   1.000000
   25        1.920616   1.000000
   26        2.322072   1.000000
   27        4.687982   0.000000
   28        4.847862   0.000000
   29        5.320306   0.000000
   30        5.352761   0.000000
   31        5.736656   0.000000
   32        5.992729   0.000000
   33        7.210126   0.000000
   34        7.340944   0.000000
   35        7.747024   0.000000
   36        7.839768   0.000000
   37        8.081527   0.000000
   38        8.169095   0.000000
   39        8.385180   0.000000
   40        8.650260   0.000000
   41        8.727855   0.000000
   42        8.799889   0.000000
   43        9.956164   0.000000
   44       10.096774   0.000000
   45       11.435645   0.000000
   46       11.647952   0.000000
   47       11.761097   0.000000
   48       11.935808   0.000000
 
 -0.1428571E+00  0.1428571E+00  0.0000000E+00  0.4081633E-02
    1      -20.913404   1.000000
    2      -20.912365   1.000000
    3      -20.909515   1.000000
    4      -20.907373   1.000000
    5      -17.971212   1.000000
    6      -17.964597   1.000000
    7      -17.950740   1.000000
    8      -17.948529   1.000000
    9      -17.943292   1.000000
   10      -17.940827   1.000000
   11       -8.915271   1.000000
   12       -8.915088   1.000000
   13       -7.380229   1.000000
   14       -7.374939   1.000000
   15       -3.536312   1.000000
   16       -3.406807   1.000000
   17       -0.306643   1.000000
   18       -0.236598   1.000000
   19       -0.203911   1.000000
   20        0.099320   1.000000
   21        0.517822   1.000000
   22        0.583760   1.000000
   23        1.943661   1.000000
   24        1.963332   1.000000
   25        2.529088   1.000000
   26        2.682093   1.000000
   27        4.376349   0.000000
   28        4.410629   0.000000
   29        5.116232   0.000000
   30        5.362372   0.000000
   31        5.378255   0.000000
   32        5.385222   0.000000
   33        5.813673   0.000000
   34        5.821994   0.000000
   35        7.154668   0.000000
   36        7.284267   0.000000
   37        7.369197   0.000000
   38        7.651834   0.000000
   39        9.317698   0.000000
   40        9.411048   0.000000
   41        9.755092   0.000000
   42        9.983508   0.000000
   43       10.230870   0.000000
   44       10.236081   0.000000
   45       10.404753   0.000000
   46       10.412302   0.000000
   47       12.283415   0.000000
   48       12.364558   0.000000
 
  0.0000000E+00  0.2857143E+00  0.0000000E+00  0.4081633E-02
    1      -20.913426   1.000000
    2      -20.912604   1.000000
    3      -20.909114   1.000000
    4      -20.906521   1.000000
    5      -17.969900   1.000000
    6      -17.964277   1.000000
    7      -17.951376   1.000000
    8      -17.950890   1.000000
    9      -17.940433   1.000000
   10      -17.940131   1.000000
   11       -8.698377   1.000000
   12       -8.698090   1.000000
   13       -7.457233   1.000000
   14       -7.451809   1.000000
   15       -3.439704   1.000000
   16       -3.275365   1.000000
   17       -1.058790   1.000000
   18       -1.049474   1.000000
   19       -0.656533   1.000000
   20       -0.117367   1.000000
   21        0.809229   1.000000
   22        0.877246   1.000000
   23        1.161209   1.000000
   24        1.584736   1.000000
   25        2.804017   1.000000
   26        2.917622   1.000000
   27        4.061620   0.000000
   28        4.107728   0.000000
   29        4.924453   0.000000
   30        5.091153   0.000000
   31        6.454295   0.000000
   32        6.532278   0.000000
   33        6.696466   0.000000
   34        6.751460   0.000000
   35        7.095646   0.000000
   36        7.150177   0.000000
   37        7.997490   0.000000
   38        8.308014   0.000000
   39        9.123431   0.000000
   40        9.371129   0.000000
   41        9.542601   0.000000
   42        9.627834   0.000000
   43       10.324977   0.000000
   44       10.507121   0.000000
   45       10.656004   0.000000
   46       10.708979   0.000000
   47       11.097517   0.000000
   48       11.124471   0.000000
 
  0.1428571E+00  0.2857143E+00  0.0000000E+00  0.4081633E-02
    1      -20.913993   1.000000
    2      -20.912678   1.000000
    3      -20.908441   1.000000
    4      -20.905756   1.000000
    5      -17.970333   1.000000
    6      -17.963289   1.000000
    7      -17.951387   1.000000
    8      -17.949175   1.000000
    9      -17.941594   1.000000
   10      -17.939488   1.000000
   11       -8.585853   1.000000
   12       -8.585574   1.000000
   13       -7.413244   1.000000
   14       -7.407179   1.000000
   15       -3.458085   1.000000
   16       -3.284106   1.000000
   17       -1.248358   1.000000
   18       -1.231213   1.000000
   19       -0.634311   1.000000
   20       -0.138715   1.000000
   21        0.355277   1.000000
   22        0.460327   1.000000
   23        1.149174   1.000000
   24        1.541510   1.000000
   25        1.920616   1.000000
   26        2.322072   1.000000
   27        4.687982   0.000000
   28        4.847862   0.000000
   29        5.320306   0.000000
   30        5.352761   0.000000
   31        5.736656   0.000000
   32        5.992729   0.000000
   33        7.210125   0.000000
   34        7.340945   0.000000
   35        7.747024   0.000000
   36        7.839768   0.000000
   37        8.081527   0.000000
   38        8.169095   0.000000
   39        8.385179   0.000000
   40        8.650261   0.000000
   41        8.727855   0.000000
   42        8.799889   0.000000
   43        9.956164   0.000000
   44       10.096774   0.000000
   45       11.435647   0.000000
   46       11.647951   0.000000
   47       11.761097   0.000000
   48       11.935809   0.000000
 
  0.2857143E+00  0.2857143E+00  0.0000000E+00  0.4081633E-02
    1      -20.914569   1.000000
    2      -20.913026   1.000000
    3      -20.907217   1.000000
    4      -20.904296   1.000000
    5      -17.970168   1.000000
    6      -17.963236   1.000000
    7      -17.950961   1.000000
    8      -17.948156   1.000000
    9      -17.940248   1.000000
   10      -17.938548   1.000000
   11       -8.273838   1.000000
   12       -8.273692   1.000000
   13       -7.352661   1.000000
   14       -7.346168   1.000000
   15       -3.506622   1.000000
   16       -3.333864   1.000000
   17       -1.938140   1.000000
   18       -1.926481   1.000000
   19       -0.510730   1.000000
   20       -0.128873   1.000000
   21        0.082012   1.000000
   22        0.136337   1.000000
   23        1.027080   1.000000
   24        1.066541   1.000000
   25        1.446590   1.000000
   26        1.652245   1.000000
   27        4.368835   0.000000
   28        4.382850   0.000000
   29        5.193053   0.000000
   30        5.202027   0.000000
   31        6.104355   0.000000
   32        6.644033   0.000000
   33        6.805549   0.000000
   34        6.813073   0.000000
   35        7.902966   0.000000
   36        7.923916   0.000000
   37        8.189341   0.000000
   38        8.204577   0.000000
   39        9.018965   0.000000
   40        9.166536   0.000000
   41        9.452722   0.000000
   42        9.892883   0.000000
   43       10.103334   0.000000
   44       10.210899   0.000000
   45       12.323695   0.000000
   46       12.761672   0.000000
   47       12.794235   0.000000
   48       12.996374   0.000000
 
  0.4285714E+00  0.2857143E+00  0.0000000E+00  0.4081633E-02
    1      -20.914771   1.000000
    2      -20.913367   1.000000
    3      -20.905911   1.000000
    4      -20.903660   1.000000
    5      -17.969397   1.000000
    6      -17.964695   1.000000
    7      -17.951188   1.000000
    8      -17.948276   1.000000
    9      -17.937964   1.000000
   10      -17.936563   1.000000
   11       -7.865087   1.000000
   12       -7.863865   1.000000
   13       -7.447100   1.000000
   14       -7.443568   1.000000
   15       -3.387989   1.000000
   16       -3.255854   1.000000
   17       -2.796498   1.000000
   18       -2.740478   1.000000
   19       -0.254819   1.000000
   20        0.057787   1.000000
   21        0.193580   1.000000
   22        0.283535   1.000000
   23        0.520386   1.000000
   24        0.862310   1.000000
   25        0.933324   1.000000
   26        1.404498   1.000000
   27        4.446832   0.000000
   28        4.564562   0.000000
   29        4.907697   0.000000
   30        4.926526   0.000000
   31        5.249285   0.000000
   32        5.658943   0.000000
   33        5.847596   0.000000
   34        5.871484   0.000000
   35        8.222674   0.000000
   36        8.232247   0.000000
   37        9.496401   0.000000
   38        9.748843   0.000000
   39        9.946677   0.000000
   40       10.069972   0.000000
   41       10.235532   0.000000
   42       10.400219   0.000000
   43       11.125682   0.000000
   44       11.676991   0.000000
   45       12.457334   0.000000
   46       12.722580   0.000000
   47       12.893538   0.000000
   48       12.924231   0.000000
 
 -0.4285714E+00  0.2857143E+00  0.0000000E+00  0.4081633E-02
    1      -20.914771   1.000000
    2      -20.913367   1.000000