 
             +---------------------------------------------------+
             |                                                   |
             |                   WANNIER90                       |
             |                                                   |
             +---------------------------------------------------+
             |                                                   |
             |        Welcome to the Maximally-Localized         |
             |        Generalized Wannier Functions code         |
             |            http://www.wannier.org                 |
             |                                                   |
             |                                                   |
             |  Wannier90 Developer Group:                       |
             |    Giovanni Pizzi    (EPFL)                       |
             |    Valerio Vitale    (Cambridge)                  |
             |    David Vanderbilt  (Rutgers University)         |
             |    Nicola Marzari    (EPFL)                       |
             |    Ivo Souza         (Universidad del Pais Vasco) |
             |    Arash A. Mostofi  (Imperial College London)    |
             |    Jonathan R. Yates (University of Oxford)       |
             |                                                   |
             |  For the full list of Wannier90 3.x authors,      |
             |  please check the code documentation and the      |
             |  README on the GitHub page of the code            |
             |                                                   |
             |                                                   |
             |  Please cite                                      |
             |                                                   |
             |  [ref] "Wannier90 as a community code:            |
             |        new features and applications",            |
             |        G. Pizzi et al., J. Phys. Cond. Matt. 32,  |
             |        165902 (2020).                             |
             |        http://doi.org/10.1088/1361-648X/ab51ff    |
             |                                                   |
             |  in any publications arising from the use of      |
             |  this code. For the method please cite            |
             |                                                   |
             |  [ref] "Maximally Localized Generalised Wannier   |
             |         Functions for Composite Energy Bands"     |
             |         N. Marzari and D. Vanderbilt              |
             |         Phys. Rev. B 56 12847 (1997)              |
             |                                                   |
             |  [ref] "Maximally Localized Wannier Functions     |
             |         for Entangled Energy Bands"               |
             |         I. Souza, N. Marzari and D. Vanderbilt    |
             |         Phys. Rev. B 65 035109 (2001)             |
             |                                                   |
             |                                                   |
             | Copyright (c) 1996-2020                           |
             |        The Wannier90 Developer Group and          |
             |        individual contributors                    |
             |                                                   |
             |      Release: 3.1.0        5th March    2020      |
             |                                                   |
             | This program is free software; you can            |
             | redistribute it and/or modify it under the terms  |
             | of the GNU General Public License as published by |
             | the Free Software Foundation; either version 2 of |
             | the License, or (at your option) any later version|
             |                                                   |
             | This program is distributed in the hope that it   |
             | will be useful, but WITHOUT ANY WARRANTY; without |
             | even the implied warranty of MERCHANTABILITY or   |
             | FITNESS FOR A PARTICULAR PURPOSE. See the GNU     |
             | General Public License for more details.          |
             |                                                   |
             | You should have received a copy of the GNU General|
             | Public License along with this program; if not,   |
             | write to the Free Software Foundation, Inc.,      |
             | 675 Mass Ave, Cambridge, MA 02139, USA.           |
             |                                                   |
             +---------------------------------------------------+
             |    Execution started on 11Feb2022 at 18:33:33     |
             +---------------------------------------------------+
 
 ******************************************************************************
 * -> Using CODATA 2006 constant values                                       *
 *    (http://physics.nist.gov/cuu/Constants/index.html)                      *
 * -> Using Bohr value from CODATA                                            *
 ******************************************************************************
 

 Running in parallel on  24 CPUs

 
                                    ------
                                    SYSTEM
                                    ------
 
                              Lattice Vectors (Ang)
                    a_1     4.300141   0.000000   0.000000
                    a_2     0.000000   4.300141   0.000000
                    a_3     0.000000   0.000000   6.145861
 
                   Unit Cell Volume:     113.64442  (Ang^3)
 
                        Reciprocal-Space Vectors (Ang^-1)
                    b_1     1.461158   0.000000   0.000000
                    b_2     0.000000   1.461158   0.000000
                    b_3     0.000000   0.000000   1.022344
  
 *----------------------------------------------------------------------------*
 |   Site       Fractional Coordinate          Cartesian Coordinate (Ang)     |
 +----------------------------------------------------------------------------+
 | Ga   1   0.50000   0.00000   0.72574   |    2.15007   0.00000   4.46027    |
 | Ga   2   0.00000   0.50000   0.27426   |    0.00000   2.15007   1.68559    |
 | Bi   1   0.00000   0.00000   0.00000   |    0.00000   0.00000   0.00000    |
 | As   1   0.50000   0.50000   0.50000   |    2.15007   2.15007   3.07293    |
 *----------------------------------------------------------------------------*
                                ------------
                                K-POINT GRID
                                ------------
  
             Grid size =  7 x  7 x  5      Total points =  245
  
  
 *---------------------------------- MAIN ------------------------------------*
 |  Number of Wannier Functions               :                28             |
 |  Number of Objective Wannier Functions     :                28             |
 |  Number of input Bloch states              :                48             |
 |  Output verbosity (1=low, 5=high)          :                 1             |
 |  Timing Level (1=low, 5=high)              :                 1             |
 |  Optimisation (0=memory, 3=speed)          :                 3             |
 |  Length Unit                               :               Ang             |
 |  Post-processing setup (write *.nnkp)      :                 F             |
 |  Using Gamma-only branch of algorithms     :                 F             |
 *----------------------------------------------------------------------------*
 *------------------------------- WANNIERISE ---------------------------------*
 |  Total number of iterations                :                 0             |
 |  Number of CG steps before reset           :                 5             |
 |  Trial step length for line search         :             2.000             |
 |  Convergence tolerence                     :         0.100E-09             |
 |  Convergence window                        :                -1             |
 |  Iterations between writing output         :               100             |
 |  Iterations between backing up to disk     :               100             |
 |  Write r^2_nm to file                      :                 F             |
 |  Write xyz WF centres to file              :                 T             |
 |  Write on-site energies <0n|H|0n> to file  :                 F             |
 |  Use guiding centre to control phases      :                 T             |
 |  Use phases for initial projections        :                 F             |
 |  Iterations before starting guiding centres:                 0             |
 |  Iterations between using guiding centres  :                 1             |
 *----------------------------------------------------------------------------*
 *------------------------------- DISENTANGLE --------------------------------*
 |  Using band disentanglement                :                 T             |
 |  Total number of iterations                :              4000             |
 |  Mixing ratio                              :             0.500             |
 |  Convergence tolerence                     :         1.000E-10             |
 |  Convergence window                        :                 3             |
 *----------------------------------------------------------------------------*
 *-------------------------------- PLOTTING ----------------------------------*
 |  Plotting interpolated bandstructure       :                 T             |
 |   Number of K-path sections                :                 7             |
 |   Divisions along first K-path section     :               100             |
 |   Output format                            :           gnuplot             |
 |   Output mode                              :               s-k             |
 *----------------------------------------------------------------------------*
 |   K-space path sections:                                                   |
 |    From: G       0.000  0.000  0.000     To: X       0.000  0.500  0.000   |
 |    From: X       0.000  0.500  0.000     To: M       0.500  0.500  0.000   |
 |    From: M       0.500  0.500  0.000     To: G       0.000  0.000  0.000   |
 |    From: G       0.000  0.000  0.000     To: Z       0.000  0.000  0.500   |
 |    From: Z       0.000  0.000  0.500     To: R       0.000  0.500  0.500   |
 |    From: R       0.000  0.500  0.500     To: A       0.500  0.500  0.500   |
 |    From: A       0.500  0.500  0.500     To: Z       0.000  0.000  0.500   |
 *----------------------------------------------------------------------------*
 |  Plotting Hamiltonian in WF basis          :                 T             |
 *----------------------------------------------------------------------------*
 Time to read parameters        0.054 (sec)

 *---------------------------------- K-MESH ----------------------------------*
 +----------------------------------------------------------------------------+
 |                    Distance to Nearest-Neighbour Shells                    |
 |                    ------------------------------------                    |
 |          Shell             Distance (Ang^-1)          Multiplicity         |
 |          -----             -----------------          ------------         |
 |             1                   0.204469                      2            |
 |             2                   0.208737                      4            |
 |             3                   0.292196                      8            |
 |             4                   0.295198                      4            |
 |             5                   0.359096                      8            |
 |             6                   0.408938                      2            |
 |             7                   0.417474                      4            |
 |             8                   0.459131                      8            |
 |             9                   0.464857                      8            |
 |            10                   0.466750                      8            |
 |            11                   0.504353                      8            |
 |            12                   0.509571                     16            |
 |            13                   0.584392                      8            |
 |            14                   0.590397                      4            |
 |            15                   0.613407                      2            |
 |            16                   0.620552                     16            |
 |            17                   0.624801                      8            |
 |            18                   0.626211                      4            |
 |            19                   0.647950                      8            |
 |            20                   0.658747                      8            |
 |            21                   0.660084                      8            |
 |            22                   0.680742                      8            |
 |            23                   0.691027                     16            |
 |            24                   0.718191                      8            |
 |            25                   0.741992                      8            |
 |            26                   0.747910                      8            |
 |            27                   0.752611                      8            |
 |            28                   0.770794                     16            |
 |            29                   0.776493                     16            |
 |            30                   0.779892                     16            |
 |            31                   0.817875                      2            |
 |            32                   0.834947                      4            |
 |            33                   0.844092                      8            |
 |            34                   0.851373                      8            |
 |            35                   0.856536                     16            |
 |            36                   0.859619                      8            |
 +----------------------------------------------------------------------------+
 | The b-vectors are chosen automatically                                     |
 | The following shells are used:   1,  2                                     |
 +----------------------------------------------------------------------------+
 |                        Shell   # Nearest-Neighbours                        |
 |                        -----   --------------------                        |
 |                          1               2                                 |
 |                          2               4                                 |
 +----------------------------------------------------------------------------+
 | Completeness relation is fully satisfied [Eq. (B1), PRB 56, 12847 (1997)]  |
 +----------------------------------------------------------------------------+
 |                  b_k Vectors (Ang^-1) and Weights (Ang^2)                  |
 |                  ----------------------------------------                  |
 |            No.         b_k(x)      b_k(y)      b_k(z)        w_b           |
 |            ---        --------------------------------     --------        |
 |             1         0.000000    0.000000    0.204469    11.959575        |
 |             2         0.000000    0.000000   -0.204469    11.959575        |
 |             3         0.208737    0.000000    0.000000    11.475503        |
 |             4        -0.208737    0.000000    0.000000    11.475503        |
 |             5         0.000000    0.208737    0.000000    11.475503        |
 |             6         0.000000   -0.208737    0.000000    11.475503        |
 +----------------------------------------------------------------------------+
 |                           b_k Directions (Ang^-1)                          |
 |                           -----------------------                          |
 |            No.           x           y           z                         |
 |            ---        --------------------------------                     |
 |             1         0.000000    0.000000    0.204469                     |
 |             2         0.208737    0.000000    0.000000                     |
 |             3         0.000000    0.208737    0.000000                     |
 +----------------------------------------------------------------------------+
  
 Time to get kmesh              0.208 (sec)
 *============================================================================*
 |                              MEMORY ESTIMATE                               |
 |         Maximum RAM allocated during each phase of the calculation         |
 *============================================================================*
 |                        Disentanglement           82.62 Mb                  |
 |                            Wannierise:           53.74 Mb                  |
 |                          plot_wannier:           53.74 Mb                  |
 *----------------------------------------------------------------------------*
  
 Starting a new Wannier90 calculation ...


 Reading overlaps from wannier90.mmn    : File generated by VASP: Sn

 Reading projections from wannier90.amn : File generated by VASP: Sn

 Time to read overlaps          2.705 (sec)

 *------------------------------- DISENTANGLE --------------------------------*
 +----------------------------------------------------------------------------+
 |                              Energy  Windows                               |
 |                              ---------------                               |
 |                   Outer:   -8.00000  to   13.55319  (eV)                   |
 |                   Inner:    2.50000  to    4.50000  (eV)                   |
 +----------------------------------------------------------------------------+
   Number of target bands to extract:   28

                   Unitarised projection of Wannier functions                  
                   ------------------------------------------                  
   A_mn = <psi_m|g_n> --> S = A.A^+ --> U = S^-1/2.A
   In dis_project... done
   Using an inner window (linner = T)
   In dis_proj_froz... done

                   Extraction of optimally-connected subspace                  
                   ------------------------------------------                  
 +---------------------------------------------------------------------+<-- DIS
 |  Iter     Omega_I(i-1)      Omega_I(i)      Delta (frac.)    Time   |<-- DIS
 +---------------------------------------------------------------------+<-- DIS
       1     124.19018146     110.17850392       1.272E-01      0.00    <-- DIS
       2     115.12231591     105.46345017       9.158E-02      0.04    <-- DIS
       3     109.64591947     102.25375313       7.229E-02      0.10    <-- DIS
       4     105.43254912      99.78440121       5.660E-02      0.16    <-- DIS
       5     102.19707076      97.81916546       4.476E-02      0.21    <-- DIS
       6      99.67670991      96.21956565       3.593E-02      0.26    <-- DIS
       7      97.67740546      94.89502805       2.932E-02      0.31    <-- DIS
       8      96.06226798      93.78323545       2.430E-02      0.36    <-- DIS
       9      94.73549690      92.83966627       2.042E-02      0.41    <-- DIS
      10      93.62954781      92.03151807       1.736E-02      0.46    <-- DIS
      11      92.69607482      91.33399851       1.491E-02      0.51    <-- DIS
      12      91.89981377      90.72796917       1.292E-02      0.56    <-- DIS
      13      91.21451597      90.19839437       1.127E-02      0.61    <-- DIS
      14      90.62024878      89.73328684       9.884E-03      0.66    <-- DIS
      15      90.10158986      89.32296998       8.717E-03      0.71    <-- DIS
      16      89.64640317      88.95954841       7.721E-03      0.76    <-- DIS
      17      89.24499488      88.63651947       6.865E-03      0.82    <-- DIS
      18      88.88951996      88.34848260       6.124E-03      0.87    <-- DIS
      19      88.57355666      88.09091848       5.479E-03      0.93    <-- DIS
      20      88.29179525      87.86001880       4.914E-03      0.98    <-- DIS
      21      88.03980634      87.65255360       4.418E-03      1.03    <-- DIS
      22      87.81386530      87.46576678       3.980E-03      1.08    <-- DIS
      23      87.61081749      87.29729320       3.591E-03      1.13    <-- DIS
      24      87.42797333      87.14509228       3.246E-03      1.18    <-- DIS
      25      87.26302570      87.00739462       2.938E-03      1.23    <-- DIS
      26      87.11398443      86.88265866       2.663E-03      1.29    <-- DIS
      27      86.97912372      86.76953542       2.415E-03      1.34    <-- DIS
      28      86.85693977      86.66683956       2.193E-03      1.39    <-- DIS
      29      86.74611625      86.57352555       1.994E-03      1.45    <-- DIS
      30      86.64549617      86.48866793       1.813E-03      1.49    <-- DIS
      31      86.55405867      86.41144484       1.650E-03      1.54    <-- DIS
      32      86.47089978      86.34112428       1.503E-03      1.58    <-- DIS
      33      86.39521646      86.27705252       1.370E-03      1.63    <-- DIS
      34      86.32629323      86.21864429       1.249E-03      1.67    <-- DIS
      35      86.26349089      86.16537442       1.139E-03      1.71    <-- DIS
      36      86.20623699      86.11677077       1.039E-03      1.76    <-- DIS
      37      86.15401774      86.07240806       9.482E-04      1.80    <-- DIS
      38      86.10637109      86.03190261       8.656E-04      1.84    <-- DIS
      39      86.06288075      85.99490780       7.904E-04      1.89    <-- DIS
      40      86.02317106      85.96111000       7.220E-04      1.93    <-- DIS
      41      85.98690257      85.93022519       6.596E-04      1.97    <-- DIS
      42      85.95376810      85.90199581       6.027E-04      2.02    <-- DIS
      43      85.92348940      85.87618814       5.508E-04      2.08    <-- DIS
      44      85.89581411      85.85258988       5.035E-04      2.13    <-- DIS
      45      85.87051321      85.83100804       4.603E-04      2.18    <-- DIS
      46      85.84737861      85.81126707       4.208E-04      2.24    <-- DIS
      47      85.82622117      85.79320720       3.848E-04      2.29    <-- DIS
      48      85.80686880      85.77668292       3.519E-04      2.34    <-- DIS
      49      85.78916486      85.76156167       3.219E-04      2.40    <-- DIS
      50      85.77296671      85.74772259       2.944E-04      2.45    <-- DIS
      51      85.75814435      85.73505548       2.693E-04      2.50    <-- DIS
      52      85.74457929      85.72345982       2.464E-04      2.54    <-- DIS
      53      85.73216346      85.71284388       2.254E-04      2.60    <-- DIS
      54      85.72079830      85.70312391       2.062E-04      2.64    <-- DIS
      55      85.71039383      85.69422346       1.887E-04      2.69    <-- DIS
      56      85.70086793      85.68607270       1.727E-04      2.75    <-- DIS
      57      85.69214563      85.67860784       1.580E-04      2.80    <-- DIS
      58      85.68415844      85.67177060       1.446E-04      2.85    <-- DIS
      59      85.67684379      85.66550772       1.323E-04      2.90    <-- DIS
      60      85.67014454      85.65977050       1.211E-04      2.96    <-- DIS
      61      85.66400842      85.65451444       1.108E-04      3.01    <-- DIS
      62      85.65838771      85.64969885       1.014E-04      3.07    <-- DIS
      63      85.65323873      85.64528650       9.285E-05      3.12    <-- DIS
      64      85.64852159      85.64124336       8.499E-05      3.17    <-- DIS
      65      85.64419977      85.63753829       7.779E-05      3.21    <-- DIS
      66      85.64023990      85.63414280       7.120E-05      3.26    <-- DIS
      67      85.63661144      85.63103084       6.517E-05      3.29    <-- DIS
      68      85.63328645      85.62817856       5.965E-05      3.34    <-- DIS
      69      85.63023938      85.62556413       5.460E-05      3.38    <-- DIS
      70      85.62744683      85.62316758       4.998E-05      3.42    <-- DIS
      71      85.62488740      85.62097062       4.575E-05      3.47    <-- DIS
      72      85.62254151      85.61895652       4.187E-05      3.51    <-- DIS
      73      85.62039122      85.61710996       3.832E-05      3.56    <-- DIS
      74      85.61842013      85.61541691       3.508E-05      3.60    <-- DIS
      75      85.61661321      85.61386451       3.211E-05      3.64    <-- DIS
      76      85.61495670      85.61244102       2.938E-05      3.68    <-- DIS
      77      85.61343800      85.61113565       2.689E-05      3.73    <-- DIS
      78      85.61204560      85.60993854       2.461E-05      3.79    <-- DIS
      79      85.61076891      85.60884067       2.252E-05      3.84    <-- DIS
      80      85.60959828      85.60783374       2.061E-05      3.88    <-- DIS
      81      85.60852484      85.60691017       1.886E-05      3.94    <-- DIS
      82      85.60754047      85.60606303       1.726E-05      3.99    <-- DIS
      83      85.60663776      85.60528595       1.579E-05      4.05    <-- DIS
      84      85.60580988      85.60457310       1.445E-05      4.10    <-- DIS
      85      85.60505060      85.60391913       1.322E-05      4.15    <-- DIS
      86      85.60435420      85.60331916       1.209E-05      4.21    <-- DIS
      87      85.60371546      85.60276869       1.106E-05      4.27    <-- DIS
      88      85.60312956      85.60226361       1.012E-05      4.32    <-- DIS
      89      85.60259212      85.60180016       9.252E-06      4.39    <-- DIS
      90      85.60209911      85.60137489       8.460E-06      4.44    <-- DIS
      91      85.60164683      85.60098462       7.736E-06      4.51    <-- DIS
      92      85.60123191      85.60062646       7.073E-06      4.56    <-- DIS
      93      85.60085123      85.60029775       6.466E-06      4.61    <-- DIS
      94      85.60050196      85.59999606       5.910E-06      4.64    <-- DIS
      95      85.60018150      85.59971913       5.402E-06      4.70    <-- DIS
      96      85.59988745      85.59946494       4.936E-06      4.75    <-- DIS
      97      85.59961763      85.59923159       4.510E-06      4.79    <-- DIS
      98      85.59937002      85.59901737       4.120E-06      4.84    <-- DIS
      99      85.59914280      85.59882070       3.763E-06      4.89    <-- DIS
     100      85.59893426      85.59864012       3.436E-06      4.94    <-- DIS
     101      85.59874287      85.59847431       3.137E-06      4.99    <-- DIS
     102      85.59856721      85.59832206       2.864E-06      5.03    <-- DIS
     103      85.59840598      85.59818224       2.614E-06      5.09    <-- DIS
     104      85.59825798      85.59805384       2.385E-06      5.13    <-- DIS
     105      85.59812213      85.59793590       2.176E-06      5.18    <-- DIS
     106      85.59799741      85.59782758       1.984E-06      5.22    <-- DIS
     107      85.59788292      85.59772807       1.809E-06      5.28    <-- DIS
     108      85.59777780      85.59763666       1.649E-06      5.32    <-- DIS
     109      85.59768128      85.59755268       1.502E-06      5.37    <-- DIS
     110      85.59759266      85.59747552       1.369E-06      5.41    <-- DIS
     111      85.59751129      85.59740461       1.246E-06      5.45    <-- DIS
     112      85.59743656      85.59733946       1.134E-06      5.49    <-- DIS
     113      85.59736793      85.59727957       1.032E-06      5.53    <-- DIS
     114      85.59730489      85.59722453       9.388E-07      5.58    <-- DIS
     115      85.59724700      85.59717394       8.535E-07      5.62    <-- DIS
     116      85.59719382      85.59712743       7.756E-07      5.68    <-- DIS
     117      85.59714496      85.59708467       7.044E-07      5.72    <-- DIS
     118      85.59710008      85.59704534       6.395E-07      5.79    <-- DIS
     119      85.59705885      85.59700918       5.802E-07      5.84    <-- DIS
     120      85.59702096      85.59697593       5.261E-07      5.90    <-- DIS
     121      85.59698614      85.59694533       4.767E-07      5.96    <-- DIS
     122      85.59695414      85.59691719       4.317E-07      6.01    <-- DIS
     123      85.59692473      85.59689129       3.906E-07      6.06    <-- DIS
     124      85.59689769      85.59686746       3.531E-07      6.10    <-- DIS
     125      85.59687284      85.59684553       3.190E-07      6.15    <-- DIS
     126      85.59684999      85.59682534       2.879E-07      6.21    <-- DIS
     127      85.59682898      85.59680676       2.596E-07      6.26    <-- DIS
     128      85.59680966      85.59678964       2.338E-07      6.30    <-- DIS
     129      85.59679189      85.59677388       2.104E-07      6.35    <-- DIS
     130      85.59677554      85.59675936       1.890E-07      6.39    <-- DIS
     131      85.59676050      85.59674598       1.696E-07      6.43    <-- DIS
     132      85.59674666      85.59673365       1.520E-07      6.49    <-- DIS
     133      85.59673393      85.59672229       1.360E-07      6.53    <-- DIS
     134      85.59672220      85.59671181       1.214E-07      6.59    <-- DIS
     135      85.59671141      85.59670215       1.082E-07      6.63    <-- DIS
     136      85.59670148      85.59669324       9.623E-08      6.67    <-- DIS
     137      85.59669233      85.59668502       8.538E-08      6.71    <-- DIS
     138      85.59668390      85.59667743       7.555E-08      6.76    <-- DIS
     139      85.59667613      85.59667043       6.665E-08      6.81    <-- DIS
     140      85.59666897      85.59666396       5.860E-08      6.86    <-- DIS
     141      85.59666238      85.59665798       5.132E-08      6.90    <-- DIS
     142      85.59665629      85.59665246       4.476E-08      6.95    <-- DIS
     143      85.59665068      85.59664736       3.884E-08      7.00    <-- DIS
     144      85.59664551      85.59664264       3.350E-08      7.05    <-- DIS
     145      85.59664073      85.59663828       2.870E-08      7.11    <-- DIS
     146      85.59663632      85.59663424       2.438E-08      7.15    <-- DIS
     147      85.59663225      85.59663050       2.050E-08      7.20    <-- DIS
     148      85.59662849      85.59662704       1.703E-08      7.25    <-- DIS
     149      85.59662502      85.59662383       1.392E-08      7.31    <-- DIS
     150      85.59662181      85.59662085       1.114E-08      7.38    <-- DIS
     151      85.59661884      85.59661810       8.659E-09      7.44    <-- DIS
     152      85.59661609      85.59661554       6.454E-09      7.49    <-- DIS
     153      85.59661355      85.59661316       4.496E-09      7.55    <-- DIS
     154      85.59661119      85.59661096       2.762E-09      7.62    <-- DIS
     155      85.59660901      85.59660891       1.231E-09      7.66    <-- DIS
     156      85.59660699      85.59660700      -1.163E-10      7.71    <-- DIS
     157      85.59660512      85.59660523      -1.298E-09      7.76    <-- DIS
     158      85.59660338      85.59660358      -2.330E-09      7.81    <-- DIS
     159      85.59660176      85.59660204      -3.226E-09      7.85    <-- DIS
     160      85.59660026      85.59660061      -4.001E-09      7.89    <-- DIS
     161      85.59659887      85.59659927      -4.666E-09      7.93    <-- DIS
     162      85.59659757      85.59659802      -5.232E-09      7.97    <-- DIS
     163      85.59659637      85.59659685      -5.710E-09      8.02    <-- DIS
     164      85.59659524      85.59659576      -6.108E-09      8.06    <-- DIS
     165      85.59659419      85.59659474      -6.435E-09      8.10    <-- DIS
     166      85.59659322      85.59659379      -6.699E-09      8.14    <-- DIS
     167      85.59659231      85.59659290      -6.906E-09      8.19    <-- DIS
     168      85.59659145      85.59659206      -7.062E-09      8.23    <-- DIS
     169      85.59659066      85.59659127      -7.173E-09      8.29    <-- DIS
     170      85.59658991      85.59659053      -7.245E-09      8.33    <-- DIS
     171      85.59658922      85.59658984      -7.281E-09      8.39    <-- DIS
     172      85.59658856      85.59658919      -7.286E-09      8.43    <-- DIS
     173      85.59658795      85.59658857      -7.264E-09      8.49    <-- DIS
     174      85.59658738      85.59658799      -7.219E-09      8.53    <-- DIS
     175      85.59658683      85.59658745      -7.152E-09      8.57    <-- DIS
     176      85.59658633      85.59658693      -7.068E-09      8.62    <-- DIS
     177      85.59658585      85.59658644      -6.968E-09      8.67    <-- DIS
     178      85.59658540      85.59658598      -6.856E-09      8.71    <-- DIS
     179      85.59658497      85.59658555      -6.732E-09      8.76    <-- DIS
     180      85.59658457      85.59658513      -6.598E-09      8.81    <-- DIS
     181      85.59658419      85.59658474      -6.457E-09      8.86    <-- DIS
     182      85.59658383      85.59658437      -6.310E-09      8.91    <-- DIS
     183      85.59658349      85.59658402      -6.158E-09      8.96    <-- DIS
     184      85.59658317      85.59658368      -6.003E-09      9.01    <-- DIS
     185      85.59658286      85.59658336      -5.844E-09      9.06    <-- DIS
     186      85.59658257      85.59658306      -5.684E-09      9.11    <-- DIS
     187      85.59658230      85.59658277      -5.522E-09      9.16    <-- DIS
     188      85.59658204      85.59658249      -5.361E-09      9.20    <-- DIS
     189      85.59658179      85.59658223      -5.200E-09      9.26    <-- DIS
     190      85.59658155      85.59658198      -5.039E-09      9.30    <-- DIS
     191      85.59658132      85.59658174      -4.880E-09      9.35    <-- DIS
     192      85.59658110      85.59658151      -4.723E-09      9.40    <-- DIS
     193      85.59658090      85.59658129      -4.568E-09      9.45    <-- DIS
     194      85.59658070      85.59658107      -4.415E-09      9.49    <-- DIS
     195      85.59658051      85.59658087      -4.266E-09      9.53    <-- DIS
     196      85.59658032      85.59658068      -4.119E-09      9.58    <-- DIS
     197      85.59658015      85.59658049      -3.975E-09      9.63    <-- DIS
     198      85.59657998      85.59658031      -3.834E-09      9.67    <-- DIS
     199      85.59657982      85.59658014      -3.697E-09      9.71    <-- DIS
     200      85.59657967      85.59657997      -3.563E-09      9.75    <-- DIS
     201      85.59657952      85.59657981      -3.433E-09      9.79    <-- DIS
     202      85.59657937      85.59657966      -3.306E-09      9.83    <-- DIS
     203      85.59657923      85.59657951      -3.183E-09      9.88    <-- DIS
     204      85.59657910      85.59657936      -3.063E-09      9.92    <-- DIS
     205      85.59657897      85.59657922      -2.947E-09      9.97    <-- DIS
     206      85.59657885      85.59657909      -2.835E-09     10.01    <-- DIS
     207      85.59657873      85.59657896      -2.726E-09     10.05    <-- DIS
     208      85.59657861      85.59657884      -2.621E-09     10.10    <-- DIS
     209      85.59657850      85.59657871      -2.519E-09     10.14    <-- DIS
     210      85.59657839      85.59657860      -2.421E-09     10.18    <-- DIS
     211      85.59657829      85.59657848      -2.326E-09     10.24    <-- DIS
     212      85.59657818      85.59657837      -2.234E-09     10.28    <-- DIS
     213      85.59657808      85.59657827      -2.146E-09     10.32    <-- DIS
     214      85.59657799      85.59657817      -2.060E-09     10.36    <-- DIS
     215      85.59657790      85.59657807      -1.978E-09     10.42    <-- DIS
     216      85.59657781      85.59657797      -1.899E-09     10.46    <-- DIS
     217      85.59657772      85.59657787      -1.823E-09     10.52    <-- DIS
     218      85.59657763      85.59657778      -1.749E-09     10.56    <-- DIS
     219      85.59657755      85.59657769      -1.679E-09     10.61    <-- DIS
     220      85.59657747      85.59657761      -1.611E-09     10.66    <-- DIS
     221      85.59657739      85.59657753      -1.545E-09     10.71    <-- DIS
     222      85.59657732      85.59657744      -1.483E-09     10.75    <-- DIS
     223      85.59657724      85.59657737      -1.422E-09     10.80    <-- DIS
     224      85.59657717      85.59657729      -1.364E-09     10.84    <-- DIS
     225      85.59657710      85.59657721      -1.308E-09     10.90    <-- DIS
     226      85.59657703      85.59657714      -1.255E-09     10.94    <-- DIS
     227      85.59657697      85.59657707      -1.204E-09     11.00    <-- DIS
     228      85.59657690      85.59657700      -1.154E-09     11.06    <-- DIS
     229      85.59657684      85.59657694      -1.107E-09     11.10    <-- DIS
     230      85.59657678      85.59657687      -1.062E-09     11.14    <-- DIS
     231      85.59657672      85.59657681      -1.018E-09     11.20    <-- DIS
     232      85.59657666      85.59657675      -9.765E-10     11.25    <-- DIS
     233      85.59657661      85.59657669      -9.365E-10     11.29    <-- DIS
     234      85.59657655      85.59657663      -8.982E-10     11.33    <-- DIS
     235      85.59657650      85.59657657      -8.614E-10     11.36    <-- DIS
     236      85.59657644      85.59657652      -8.262E-10     11.41    <-- DIS
     237      85.59657639      85.59657646      -7.925E-10     11.46    <-- DIS
     238      85.59657634      85.59657641      -7.602E-10     11.50    <-- DIS
     239      85.59657630      85.59657636      -7.292E-10     11.56    <-- DIS
     240      85.59657625      85.59657631      -6.996E-10     11.60    <-- DIS
     241      85.59657620      85.59657626      -6.712E-10     11.65    <-- DIS
     242      85.59657616      85.59657621      -6.440E-10     11.71    <-- DIS
     243      85.59657611      85.59657617      -6.180E-10     11.75    <-- DIS
     244      85.59657607      85.59657612      -5.931E-10     11.81    <-- DIS
     245      85.59657603      85.59657608      -5.693E-10     11.86    <-- DIS
     246      85.59657599      85.59657603      -5.465E-10     11.92    <-- DIS
     247      85.59657595      85.59657599      -5.246E-10     11.97    <-- DIS
     248      85.59657591      85.59657595      -5.037E-10     12.03    <-- DIS
     249      85.59657587      85.59657591      -4.838E-10     12.08    <-- DIS
     250      85.59657583      85.59657587      -4.646E-10     12.14    <-- DIS
     251      85.59657580      85.59657583      -4.463E-10     12.19    <-- DIS
     252      85.59657576      85.59657580      -4.289E-10     12.24    <-- DIS
     253      85.59657573      85.59657576      -4.121E-10     12.29    <-- DIS
     254      85.59657569      85.59657573      -3.961E-10     12.33    <-- DIS
     255      85.59657566      85.59657569      -3.808E-10     12.37    <-- DIS
     256      85.59657563      85.59657566      -3.662E-10     12.43    <-- DIS
     257      85.59657560      85.59657563      -3.522E-10     12.47    <-- DIS
     258      85.59657556      85.59657559      -3.388E-10     12.53    <-- DIS
     259      85.59657553      85.59657556      -3.260E-10     12.57    <-- DIS
     260      85.59657551      85.59657553      -3.138E-10     12.62    <-- DIS
     261      85.59657548      85.59657550      -3.021E-10     12.67    <-- DIS
     262      85.59657545      85.59657547      -2.909E-10     12.73    <-- DIS
     263      85.59657542      85.59657545      -2.802E-10     12.77    <-- DIS
     264      85.59657539      85.59657542      -2.700E-10     12.82    <-- DIS
     265      85.59657537      85.59657539      -2.602E-10     12.87    <-- DIS
     266      85.59657534      85.59657536      -2.508E-10     12.91    <-- DIS
     267      85.59657532      85.59657534      -2.419E-10     12.95    <-- DIS
     268      85.59657529      85.59657531      -2.334E-10     13.00    <-- DIS
     269      85.59657527      85.59657529      -2.252E-10     13.05    <-- DIS
     270      85.59657525      85.59657527      -2.174E-10     13.09    <-- DIS
     271      85.59657522      85.59657524      -2.099E-10     13.14    <-- DIS
     272      85.59657520      85.59657522      -2.028E-10     13.18    <-- DIS
     273      85.59657518      85.59657520      -1.960E-10     13.22    <-- DIS
     274      85.59657516      85.59657518      -1.894E-10     13.27    <-- DIS
     275      85.59657514      85.59657515      -1.832E-10     13.31    <-- DIS
     276      85.59657512      85.59657513      -1.772E-10     13.36    <-- DIS
     277      85.59657510      85.59657511      -1.715E-10     13.40    <-- DIS
     278      85.59657508      85.59657509      -1.661E-10     13.44    <-- DIS
     279      85.59657506      85.59657507      -1.608E-10     13.49    <-- DIS
     280      85.59657504      85.59657506      -1.558E-10     13.54    <-- DIS
     281      85.59657502      85.59657504      -1.511E-10     13.59    <-- DIS
     282      85.59657501      85.59657502      -1.465E-10     13.64    <-- DIS
     283      85.59657499      85.59657500      -1.421E-10     13.68    <-- DIS
     284      85.59657497      85.59657498      -1.380E-10     13.73    <-- DIS
     285      85.59657496      85.59657497      -1.340E-10     13.78    <-- DIS
     286      85.59657494      85.59657495      -1.301E-10     13.82    <-- DIS
     287      85.59657493      85.59657494      -1.265E-10     13.87    <-- DIS
     288      85.59657491      85.59657492      -1.230E-10     13.92    <-- DIS
     289      85.59657490      85.59657491      -1.196E-10     13.97    <-- DIS
     290      85.59657488      85.59657489      -1.164E-10     14.02    <-- DIS
     291      85.59657487      85.59657488      -1.133E-10     14.07    <-- DIS
     292      85.59657485      85.59657486      -1.103E-10     14.11    <-- DIS
     293      85.59657484      85.59657485      -1.075E-10     14.17    <-- DIS
     294      85.59657483      85.59657483      -1.048E-10     14.22    <-- DIS
     295      85.59657481      85.59657482      -1.022E-10     14.27    <-- DIS
     296      85.59657480      85.59657481      -9.973E-11     14.33    <-- DIS
     297      85.59657479      85.59657480      -9.734E-11     14.37    <-- DIS
     298      85.59657478      85.59657478      -9.505E-11     14.42    <-- DIS

             <<<      Delta < 1.000E-10  over  3 iterations     >>>
             <<< Disentanglement convergence criteria satisfied >>>

        Final Omega_I    85.59657478 (Ang^2)

 +----------------------------------------------------------------------------+

 Time to disentangle bands     12.137 (sec)

 done

 
 *------------------------------- WANNIERISE ---------------------------------*
 +--------------------------------------------------------------------+<-- CONV
 | Iter  Delta Spread     RMS Gradient      Spread (Ang^2)      Time  |<-- CONV
 +--------------------------------------------------------------------+<-- CONV
 
 ------------------------------------------------------------------------------
 Initial State
  WF centre and spread    1  (  2.150074,  0.000005,  4.442117 )     3.19139182
  WF centre and spread    2  (  2.150097, -0.000020,  4.453126 )     4.41966327
  WF centre and spread    3  (  2.149807,  0.000089,  4.242159 )     4.48115216
  WF centre and spread    4  (  2.150059,  0.000029,  4.755056 )     4.89965530
  WF centre and spread    5  ( -0.000005,  2.150067,  1.703744 )     3.19138904
  WF centre and spread    6  (  0.000023,  2.150046,  1.692732 )     4.41963989
  WF centre and spread    7  ( -0.000030,  2.150082,  1.390806 )     4.89965738
  WF centre and spread    8  ( -0.000089,  2.150334,  1.903702 )     4.48114784
  WF centre and spread    9  ( -0.000038,  0.000034,  0.000002 )     3.99292839
  WF centre and spread   10  (  0.000213, -0.000021,  0.174022 )     4.07377037
  WF centre and spread   11  (  0.000021, -0.000214, -0.174021 )     4.07376000
  WF centre and spread   12  (  2.150076,  2.150064,  3.072930 )     2.80455896
  WF centre and spread   13  (  2.150014,  2.150129,  3.192224 )     3.10950139
  WF centre and spread   14  (  2.150012,  2.150128,  2.953638 )     3.10950811
  WF centre and spread   15  (  2.150064, -0.000010,  4.442065 )     3.19147182
  WF centre and spread   16  (  2.150053,  0.000007,  4.453398 )     4.42023038
  WF centre and spread   17  (  2.150667, -0.000333,  4.242179 )     4.48126058
  WF centre and spread   18  (  2.149989, -0.000095,  4.755199 )     4.89962062
  WF centre and spread   19  (  0.000009,  2.150077,  1.703797 )     3.19147032
  WF centre and spread   20  ( -0.000006,  2.150088,  1.692463 )     4.42023051
  WF centre and spread   21  (  0.000094,  2.150152,  1.390661 )     4.89962616
  WF centre and spread   22  (  0.000333,  2.149472,  1.903682 )     4.48125976
  WF centre and spread   23  (  0.000032, -0.000033, -0.000000 )     3.99319384
  WF centre and spread   24  ( -0.000389,  0.000089,  0.173895 )     4.07426428
  WF centre and spread   25  ( -0.000090,  0.000389, -0.173896 )     4.07426311
  WF centre and spread   26  (  2.150087,  2.150053,  3.072930 )     2.80468475
  WF centre and spread   27  (  2.150199,  2.149914,  3.192098 )     3.10991980
  WF centre and spread   28  (  2.150227,  2.149941,  2.953763 )     3.10991807
  Sum of centres and spreads ( 30.101506, 30.100464, 67.604472 )   110.29913793
 
      0     0.110E+03     0.0000000000      110.2991379295      15.14  <-- CONV
        O_D=      0.5287361 O_OD=     24.1738270 O_TOT=    110.2991379 <-- SPRD
 ------------------------------------------------------------------------------
 Final State
  WF centre and spread    1  (  2.150074,  0.000005,  4.442117 )     3.19139182
  WF centre and spread    2  (  2.150097, -0.000020,  4.453126 )     4.41966327
  WF centre and spread    3  (  2.149807,  0.000089,  4.242159 )     4.48115216
  WF centre and spread    4  (  2.150059,  0.000029,  4.755056 )     4.89965530
  WF centre and spread    5  ( -0.000005,  2.150067,  1.703744 )     3.19138904
  WF centre and spread    6  (  0.000023,  2.150046,  1.692732 )     4.41963989
  WF centre and spread    7  ( -0.000030,  2.150082,  1.390806 )     4.89965738
  WF centre and spread    8  ( -0.000089,  2.150334,  1.903702 )     4.48114784
  WF centre and spread    9  ( -0.000038,  0.000034,  0.000002 )     3.99292839
  WF centre and spread   10  (  0.000213, -0.000021,  0.174022 )     4.07377037
  WF centre and spread   11  (  0.000021, -0.000214, -0.174021 )     4.07376000
  WF centre and spread   12  (  2.150076,  2.150064,  3.072930 )     2.80455896
  WF centre and spread   13  (  2.150014,  2.150129,  3.192224 )     3.10950139
  WF centre and spread   14  (  2.150012,  2.150128,  2.953638 )     3.10950811
  WF centre and spread   15  (  2.150064, -0.000010,  4.442065 )     3.19147182
  WF centre and spread   16  (  2.150053,  0.000007,  4.453398 )     4.42023038
  WF centre and spread   17  (  2.150667, -0.000333,  4.242179 )     4.48126058
  WF centre and spread   18  (  2.149989, -0.000095,  4.755199 )     4.89962062
  WF centre and spread   19  (  0.000009,  2.150077,  1.703797 )     3.19147032
  WF centre and spread   20  ( -0.000006,  2.150088,  1.692463 )     4.42023051
  WF centre and spread   21  (  0.000094,  2.150152,  1.390661 )     4.89962616
  WF centre and spread   22  (  0.000333,  2.149472,  1.903682 )     4.48125976
  WF centre and spread   23  (  0.000032, -0.000033, -0.000000 )     3.99319384
  WF centre and spread   24  ( -0.000389,  0.000089,  0.173895 )     4.07426428
  WF centre and spread   25  ( -0.000090,  0.000389, -0.173896 )     4.07426311
  WF centre and spread   26  (  2.150087,  2.150053,  3.072930 )     2.80468475
  WF centre and spread   27  (  2.150199,  2.149914,  3.192098 )     3.10991980
  WF centre and spread   28  (  2.150227,  2.149941,  2.953763 )     3.10991807
  Sum of centres and spreads ( 30.101506, 30.100464, 67.604472 )   110.29913793
 
         Spreads (Ang^2)       Omega I      =    85.596574784
        ================       Omega D      =     0.528736149
                               Omega OD     =    24.173826997
    Final Spread (Ang^2)       Omega Total  =   110.299137930
 ------------------------------------------------------------------------------

 Wannier centres written to file wannier90_centres.xyz
 Time for wannierise            0.058 (sec)

 done

 *---------------------------------------------------------------------------*
 |                               PLOTTING                                    |
 *---------------------------------------------------------------------------*
 
 
 Calculating interpolated band-structure
 
 Time to calculate interpolated band structure       8.905 (sec)
 
 Time for plotting             10.763 (sec)
 Total Execution Time          25.965 (sec)

 *===========================================================================*
 |                             TIMING INFORMATION                            |
 *===========================================================================*
 |    Tag                                                Ncalls      Time (s)|
 |---------------------------------------------------------------------------|
 |kmesh: get                                        :         1         0.208|
 |overlap: allocate                                 :         1         0.003|
 |overlap: read                                     :         1         2.701|
 |dis: main                                         :         1        12.137|
 |wann: main                                        :         1         0.058|
 |plot: main                                        :         1        10.763|
 *---------------------------------------------------------------------------*
 
 All done: wannier90 exiting
