   4   4   1   0
  0.2841110E+02  0.4300141E-09  0.4300141E-09  0.6145861E-09  0.5000000E-15
  1.000000000000000E-004
  CAR 
 Ga2BiAs                                 
     12.59582586    -20.81130762  301      3.13744300      1.00000000
    -20.811  0.0000E+00  0.0000E+00
    -20.700  0.0000E+00  0.0000E+00
    -20.589  0.0000E+00  0.0000E+00
    -20.477  0.0000E+00  0.0000E+00
    -20.366  0.0000E+00  0.0000E+00
    -20.255  0.0000E+00  0.0000E+00
    -20.143  0.0000E+00  0.0000E+00
    -20.032  0.0000E+00  0.0000E+00
    -19.920  0.0000E+00  0.0000E+00
    -19.809  0.0000E+00  0.0000E+00
    -19.698  0.0000E+00  0.0000E+00
    -19.586  0.8585E-15  0.9560E-16
    -19.475  0.2818E-05  0.3138E-06
    -19.364  0.7651E+00  0.8520E-01
    -19.252  0.6117E+02  0.6896E+01
    -19.141  0.2783E+02  0.9996E+01
    -19.030  0.3490E-01  0.1000E+02
    -18.918  0.8657E-08  0.1000E+02
    -18.807  0.0000E+00  0.1000E+02
    -18.696  0.0000E+00  0.1000E+02
    -18.584  0.0000E+00  0.1000E+02
    -18.473  0.0000E+00  0.1000E+02
    -18.361  0.0000E+00  0.1000E+02
    -18.250  0.0000E+00  0.1000E+02
    -18.139  0.0000E+00  0.1000E+02
    -18.027  0.0000E+00  0.1000E+02
    -17.916  0.0000E+00  0.1000E+02
    -17.805  0.0000E+00  0.1000E+02
    -17.693  0.0000E+00  0.1000E+02
    -17.582  0.0000E+00  0.1000E+02
    -17.471  0.0000E+00  0.1000E+02
    -17.359  0.0000E+00  0.1000E+02
    -17.248  0.0000E+00  0.1000E+02
    -17.137  0.0000E+00  0.1000E+02
    -17.025  0.0000E+00  0.1000E+02
    -16.914  0.0000E+00  0.1000E+02
    -16.802  0.0000E+00  0.1000E+02
    -16.691  0.0000E+00  0.1000E+02
    -16.580  0.0000E+00  0.1000E+02
    -16.468  0.0000E+00  0.1000E+02
    -16.357  0.0000E+00  0.1000E+02
    -16.246  0.0000E+00  0.1000E+02
    -16.134  0.0000E+00  0.1000E+02
    -16.023  0.0000E+00  0.1000E+02
    -15.912  0.0000E+00  0.1000E+02
    -15.800  0.0000E+00  0.1000E+02
    -15.689  0.0000E+00  0.1000E+02
    -15.578  0.0000E+00  0.1000E+02
    -15.466  0.0000E+00  0.1000E+02
    -15.355  0.0000E+00  0.1000E+02
    -15.243  0.0000E+00  0.1000E+02
    -15.132  0.0000E+00  0.1000E+02
    -15.021  0.0000E+00  0.1000E+02
    -14.909  0.0000E+00  0.1000E+02
    -14.798  0.0000E+00  0.1000E+02
    -14.687  0.0000E+00  0.1000E+02
    -14.575  0.0000E+00  0.1000E+02
    -14.464  0.0000E+00  0.1000E+02
    -14.353  0.0000E+00  0.1000E+02
    -14.241  0.0000E+00  0.1000E+02
    -14.130  0.0000E+00  0.1000E+02
    -14.019  0.0000E+00  0.1000E+02
    -13.907  0.0000E+00  0.1000E+02
    -13.796  0.0000E+00  0.1000E+02
    -13.684  0.0000E+00  0.1000E+02
    -13.573  0.0000E+00  0.1000E+02
    -13.462  0.0000E+00  0.1000E+02
    -13.350  0.0000E+00  0.1000E+02
    -13.239  0.0000E+00  0.1000E+02
    -13.128  0.0000E+00  0.1000E+02
    -13.016  0.0000E+00  0.1000E+02
    -12.905  0.0000E+00  0.1000E+02
    -12.794  0.0000E+00  0.1000E+02
    -12.682  0.0000E+00  0.1000E+02
    -12.571  0.0000E+00  0.1000E+02
    -12.460  0.0000E+00  0.1000E+02
    -12.348  0.0000E+00  0.1000E+02
    -12.237  0.0000E+00  0.1000E+02
    -12.125  0.0000E+00  0.1000E+02
    -12.014  0.0000E+00  0.1000E+02
    -11.903  0.0000E+00  0.1000E+02
    -11.791  0.0000E+00  0.1000E+02
    -11.680  0.0000E+00  0.1000E+02
    -11.569  0.0000E+00  0.1000E+02
    -11.457  0.0000E+00  0.1000E+02
    -11.346  0.0000E+00  0.1000E+02
    -11.235  0.0000E+00  0.1000E+02
    -11.123  0.0000E+00  0.1000E+02
    -11.012  0.0000E+00  0.1000E+02
    -10.901  0.0000E+00  0.1000E+02
    -10.789  0.0000E+00  0.1000E+02
    -10.678  0.0000E+00  0.1000E+02
    -10.566  0.0000E+00  0.1000E+02
    -10.455  0.0000E+00  0.1000E+02
    -10.344  0.0000E+00  0.1000E+02
    -10.232  0.0000E+00  0.1000E+02
    -10.121  0.0000E+00  0.1000E+02
    -10.010  0.0000E+00  0.1000E+02
     -9.898  0.0000E+00  0.1000E+02
     -9.787  0.0000E+00  0.1000E+02
     -9.676  0.0000E+00  0.1000E+02
     -9.564  0.0000E+00  0.1000E+02
     -9.453  0.1495E-14  0.1000E+02
     -9.342  0.1231E-05  0.1000E+02
     -9.230  0.8479E-01  0.1001E+02
     -9.119  0.2498E+01  0.1029E+02
     -9.007  0.1832E+01  0.1049E+02
     -8.896  0.1253E+01  0.1063E+02
     -8.785  0.1005E+01  0.1074E+02
     -8.673  0.7739E+00  0.1083E+02
     -8.562  0.1302E+01  0.1097E+02
     -8.451  0.2773E+01  0.1128E+02
     -8.339  0.3394E+01  0.1166E+02
     -8.228  0.2131E+01  0.1190E+02
     -8.117  0.2145E+01  0.1214E+02
     -8.005  0.2625E+01  0.1243E+02
     -7.894  0.2130E+01  0.1267E+02
     -7.783  0.1625E+01  0.1285E+02
     -7.671  0.7081E+00  0.1293E+02
     -7.560  0.1079E+01  0.1305E+02
     -7.448  0.2655E+01  0.1334E+02
     -7.337  0.4936E+01  0.1389E+02
     -7.226  0.9620E+00  0.1400E+02
     -7.114  0.8210E-02  0.1400E+02
     -7.003  0.2564E-07  0.1400E+02
     -6.892  0.0000E+00  0.1400E+02
     -6.780  0.0000E+00  0.1400E+02
     -6.669  0.0000E+00  0.1400E+02
     -6.558  0.0000E+00  0.1400E+02
     -6.446  0.0000E+00  0.1400E+02
     -6.335  0.0000E+00  0.1400E+02
     -6.224  0.0000E+00  0.1400E+02
     -6.112  0.0000E+00  0.1400E+02
     -6.001  0.0000E+00  0.1400E+02
     -5.889  0.0000E+00  0.1400E+02
     -5.778  0.0000E+00  0.1400E+02
     -5.667  0.0000E+00  0.1400E+02
     -5.555  0.0000E+00  0.1400E+02
     -5.444  0.0000E+00  0.1400E+02
     -5.333  0.0000E+00  0.1400E+02
     -5.221  0.0000E+00  0.1400E+02
     -5.110  0.0000E+00  0.1400E+02
     -4.999  0.0000E+00  0.1400E+02
     -4.887  0.0000E+00  0.1400E+02
     -4.776  0.0000E+00  0.1400E+02
     -4.665  0.0000E+00  0.1400E+02
     -4.553  0.0000E+00  0.1400E+02
     -4.442  0.0000E+00  0.1400E+02
     -4.330  0.0000E+00  0.1400E+02
     -4.219  0.0000E+00  0.1400E+02
     -4.108  0.0000E+00  0.1400E+02
     -3.996  0.0000E+00  0.1400E+02
     -3.885  0.0000E+00  0.1400E+02
     -3.774  0.1411E-10  0.1400E+02
     -3.662  0.3309E-03  0.1400E+02
     -3.551  0.9437E+00  0.1411E+02
     -3.440  0.5298E+01  0.1470E+02
     -3.328  0.3491E+01  0.1508E+02
     -3.217  0.8404E+00  0.1518E+02
     -3.106  0.1230E+01  0.1531E+02
     -2.994  0.9246E+00  0.1542E+02
     -2.883  0.1303E+01  0.1556E+02
     -2.771  0.9774E+00  0.1567E+02
     -2.660  0.1045E+01  0.1579E+02
     -2.549  0.5956E+00  0.1585E+02
     -2.437  0.7963E+00  0.1594E+02
     -2.326  0.5539E+00  0.1600E+02
     -2.215  0.1392E+01  0.1616E+02
     -2.103  0.1497E+00  0.1618E+02
     -1.992  0.1123E+01  0.1630E+02
     -1.881  0.3143E+00  0.1634E+02
     -1.769  0.1066E+01  0.1645E+02
     -1.658  0.1042E+01  0.1657E+02
     -1.547  0.9052E+00  0.1667E+02
     -1.435  0.1616E+01  0.1685E+02
     -1.324  0.1815E+01  0.1705E+02
     -1.212  0.1915E+00  0.1707E+02
     -1.101  0.5866E+00  0.1714E+02
     -0.990  0.2367E+00  0.1717E+02
     -0.878  0.2782E-02  0.1717E+02
     -0.767  0.3548E+00  0.1721E+02
     -0.656  0.3820E+00  0.1725E+02
     -0.544  0.2638E+00  0.1728E+02
     -0.433  0.3988E+00  0.1732E+02
     -0.322  0.9984E-01  0.1733E+02
     -0.210  0.8623E+00  0.1743E+02
     -0.099  0.1907E+01  0.1764E+02
      0.012  0.5775E+00  0.1771E+02
      0.124  0.8280E+00  0.1780E+02
      0.235  0.2811E+01  0.1811E+02
      0.347  0.2007E+01  0.1834E+02
      0.458  0.3480E+01  0.1872E+02
      0.569  0.5411E+01  0.1933E+02
      0.681  0.3663E+01  0.1973E+02
      0.792  0.2762E+01  0.2004E+02
      0.903  0.7557E+01  0.2088E+02
      1.015  0.3920E+01  0.2132E+02
      1.126  0.2226E+01  0.2157E+02
      1.237  0.2824E+01  0.2188E+02
      1.349  0.1998E+01  0.2210E+02
      1.460  0.1024E+01  0.2222E+02
      1.571  0.2221E+01  0.2247E+02
      1.683  0.2291E+01  0.2272E+02
      1.794  0.2203E+01  0.2297E+02
      1.906  0.2564E+01  0.2325E+02
      2.017  0.1354E+01  0.2340E+02
      2.128  0.3110E+01  0.2375E+02
      2.240  0.3383E+01  0.2412E+02
      2.351  0.2203E+01  0.2437E+02
      2.462  0.1939E+01  0.2459E+02
      2.574  0.1860E+01  0.2479E+02
      2.685  0.2260E+01  0.2504E+02
      2.796  0.1479E+01  0.2521E+02
      2.908  0.2015E+01  0.2543E+02
      3.019  0.2493E+01  0.2571E+02
      3.130  0.2411E+01  0.2598E+02
      3.242  0.3141E+01  0.2633E+02
      3.353  0.1239E+01  0.2647E+02
      3.465  0.9524E+00  0.2657E+02
      3.576  0.1034E+01  0.2669E+02
      3.687  0.4608E+00  0.2674E+02
      3.799  0.9615E+00  0.2685E+02
      3.910  0.2058E+01  0.2708E+02
      4.021  0.1913E+01  0.2729E+02
      4.133  0.4175E+01  0.2775E+02
      4.244  0.4341E+01  0.2824E+02
      4.355  0.3664E+01  0.2865E+02
      4.467  0.3674E+01  0.2906E+02
      4.578  0.1811E+01  0.2926E+02
      4.689  0.3365E+01  0.2963E+02
      4.801  0.4425E+01  0.3012E+02
      4.912  0.1805E+01  0.3033E+02
      5.024  0.1232E+01  0.3046E+02
      5.135  0.1300E+01  0.3061E+02
      5.246  0.2070E+01  0.3084E+02
      5.358  0.2091E+01  0.3107E+02
      5.469  0.2423E+01  0.3134E+02
      5.580  0.1470E+01  0.3150E+02
      5.692  0.4916E+00  0.3156E+02
      5.803  0.2314E+01  0.3182E+02
      5.914  0.3706E+01  0.3223E+02
      6.026  0.1450E+01  0.3239E+02
      6.137  0.1283E+01  0.3253E+02
      6.248  0.3976E+01  0.3298E+02
      6.360  0.3890E+01  0.3341E+02
      6.471  0.2172E+01  0.3365E+02
      6.583  0.2656E+01  0.3395E+02
      6.694  0.2728E+01  0.3425E+02
      6.805  0.1668E+01  0.3444E+02
      6.917  0.1396E+01  0.3459E+02
      7.028  0.2347E+01  0.3485E+02
      7.139  0.1360E+01  0.3500E+02
      7.251  0.1940E+01  0.3522E+02
      7.362  0.1605E+01  0.3540E+02
      7.473  0.2798E+01  0.3571E+02
      7.585  0.1068E+01  0.3583E+02
      7.696  0.9565E+00  0.3594E+02
      7.807  0.2489E+01  0.3621E+02
      7.919  0.1401E+01  0.3637E+02
      8.030  0.1753E+01  0.3657E+02
      8.142  0.2632E+01  0.3686E+02
      8.253  0.1330E+01  0.3701E+02
      8.364  0.1791E+01  0.3721E+02
      8.476  0.2846E+01  0.3752E+02
      8.587  0.2678E+01  0.3782E+02
      8.698  0.1308E+01  0.3797E+02
      8.810  0.7450E+00  0.3805E+02
      8.921  0.1640E+01  0.3823E+02
      9.032  0.1521E+01  0.3840E+02
      9.144  0.1520E+01  0.3857E+02
      9.255  0.6186E+00  0.3864E+02
      9.366  0.1683E+01  0.3883E+02
      9.478  0.1984E+01  0.3905E+02
      9.589  0.1709E+01  0.3924E+02
      9.701  0.6483E+00  0.3931E+02
      9.812  0.2056E+00  0.3933E+02
      9.923  0.1159E-01  0.3933E+02
     10.035  0.5151E+00  0.3939E+02
     10.146  0.9311E+00  0.3950E+02
     10.257  0.5186E+00  0.3955E+02
     10.369  0.1931E-01  0.3956E+02
     10.480  0.1151E-02  0.3956E+02
     10.591  0.3347E+00  0.3959E+02
     10.703  0.8130E+00  0.3968E+02
     10.814  0.7431E+00  0.3977E+02
     10.925  0.2325E+00  0.3979E+02
     11.037  0.7379E+00  0.3987E+02
     11.148  0.1106E+01  0.4000E+02
     11.260  0.2290E-01  0.4000E+02
     11.371  0.1272E-06  0.4000E+02
     11.482  0.0000E+00  0.4000E+02
     11.594  0.0000E+00  0.4000E+02
     11.705  0.0000E+00  0.4000E+02
     11.816  0.0000E+00  0.4000E+02
     11.928  0.0000E+00  0.4000E+02
     12.039  0.0000E+00  0.4000E+02
     12.150  0.0000E+00  0.4000E+02
     12.262  0.0000E+00  0.4000E+02
     12.373  0.0000E+00  0.4000E+02
     12.484  0.0000E+00  0.4000E+02
     12.596  0.0000E+00  0.4000E+02
     12.59582586    -20.81130762  301      3.13744300      1.00000000
    -20.811  0.0000E+00  0.0000E+00  0.0000E+00  0.0000E+00  0.0000E+00  0.0000E+00  0.0000E+00  0.0000E+00  0.0000E+00
    -20.700  0.0000E+00  0.0000E+00  0.0000E+00  0.0000E+00  0.0000E+00  0.0000E+00  0.0000E+00  0.0000E+00  0.0000E+00
    -20.589  0.0000E+00  0.0000E+00  0.0000E+00  0.0000E+00  0.0000E+00  0.0000E+00  0.0000E+00  0.0000E+00  0.0000E+00
    -20.477  0.0000E+00  0.0000E+00  0.0000E+00  0.0000E+00  0.0000E+00  0.0000E+00  0.0000E+00  0.0000E+00  0.0000E+00
    -20.366  0.0000E+00  0.0000E+00  0.0000E+00  0.0000E+00  0.0000E+00  0.0000E+00  0.0000E+00  0.0000E+00  0.0000E+00
    -20.255  0.0000E+00  0.0000E+00  0.0000E+00  0.0000E+00  0.0000E+00  0.0000E+00  0.0000E+00  0.0000E+00  0.0000E+00
    -20.143  0.0000E+00  0.0000E+00  0.0000E+00  0.0000E+00  0.0000E+00  0.0000E+00  0.0000E+00  0.0000E+00  0.0000E+00
    -20.032  0.0000E+00  0.0000E+00  0.0000E+00  0.0000E+00  0.0000E+00  0.0000E+00  0.0000E+00  0.0000E+00  0.0000E+00
    -19.920  0.0000E+00  0.0000E+00  0.0000E+00  0.0000E+00  0.0000E+00  0.0000E+00  0.0000E+00  0.0000E+00  0.0000E+00
    -19.809  0.0000E+00  0.0000E+00  0.0000E+00  0.0000E+00  0.0000E+00  0.0000E+00  0.0000E+00  0.0000E+00  0.0000E+00
    -19.698  0.0000E+00  0.0000E+00  0.0000E+00  0.0000E+00  0.0000E+00  0.0000E+00  0.0000E+00  0.0000E+00  0.0000E+00
    -19.586  0.5739E-18  0.1136E-19  0.4121E-18  0.6793E-20  0.4899E-20  0.2283E-20  0.2938E-19  0.2088E-20  0.6228E-19
    -19.475  0.1488E-08  0.4829E-10  0.1067E-08  0.6006E-09  0.1307E-10  0.1034E-10  0.7656E-10  0.2159E-09  0.1616E-09
    -19.364  0.3076E-03  0.1455E-04  0.2211E-03  0.2691E-03  0.3288E-05  0.3248E-05  0.1802E-04  0.9814E-04  0.3479E-04
    -19.252  0.1415E-01  0.1076E-02  0.1039E-01  0.2171E-01  0.5242E-03  0.2759E-03  0.1430E-02  0.8070E-02  0.2024E-02
    -19.141  0.2777E-02  0.3934E-03  0.2079E-02  0.6105E-02  0.5405E-03  0.1246E-03  0.6045E-03  0.2327E-02  0.6658E-03
    -19.030  0.6444E-06  0.3466E-06  0.4163E-06  0.1611E-05  0.1353E-05  0.1394E-06  0.4290E-06  0.6552E-06  0.4408E-06
    -18.918  0.5195E-13  0.6295E-13  0.2083E-13  0.8967E-13  0.4339E-12  0.2647E-13  0.4011E-13  0.3651E-13  0.4636E-13
    -18.807  0.0000E+00  0.0000E+00  0.0000E+00  0.0000E+00  0.0000E+00  0.0000E+00  0.0000E+00  0.0000E+00  0.0000E+00
    -18.696  0.0000E+00  0.0000E+00  0.0000E+00  0.0000E+00  0.0000E+00  0.0000E+00  0.0000E+00  0.0000E+00  0.0000E+00
    -18.584  0.0000E+00  0.0000E+00  0.0000E+00  0.0000E+00  0.0000E+00  0.0000E+00  0.0000E+00  0.0000E+00  0.0000E+00
    -18.473  0.0000E+00  0.0000E+00  0.0000E+00  0.0000E+00  0.0000E+00  0.0000E+00  0.0000E+00  0.0000E+00  0.0000E+00
    -18.361  0.0000E+00  0.0000E+00  0.0000E+00  0.0000E+00  0.0000E+00  0.0000E+00  0.0000E+00  0.0000E+00  0.0000E+00
    -18.250  0.0000E+00  0.0000E+00  0.0000E+00  0.0000E+00  0.0000E+00  0.0000E+00  0.0000E+00  0.0000E+00  0.0000E+00
    -18.139  0.0000E+00  0.0000E+00  0.0000E+00  0.0000E+00  0.0000E+00  0.0000E+00  0.0000E+00  0.0000E+00  0.0000E+00
    -18.027  0.0000E+00  0.0000E+00  0.0000E+00  0.0000E+00  0.0000E+00  0.0000E+00  0.0000E+00  0.0000E+00  0.0000E+00
    -17.916  0.0000E+00  0.0000E+00  0.0000E+00  0.0000E+00  0.0000E+00  0.0000E+00  0.0000E+00  0.0000E+00  0.0000E+00
    -17.805  0.0000E+00  0.0000E+00  0.0000E+00  0.0000E+00  0.0000E+00  0.0000E+00  0.0000E+00  0.0000E+00  0.0000E+00
    -17.693  0.0000E+00  0.0000E+00  0.0000E+00  0.0000E+00  0.0000E+00  0.0000E+00  0.0000E+00  0.0000E+00  0.0000E+00
    -17.582  0.0000E+00  0.0000E+00  0.0000E+00  0.0000E+00  0.0000E+00  0.0000E+00  0.0000E+00  0.0000E+00  0.0000E+00
    -17.471  0.0000E+00  0.0000E+00  0.0000E+00  0.0000E+00  0.0000E+00  0.0000E+00  0.0000E+00  0.0000E+00  0.0000E+00
    -17.359  0.0000E+00  0.0000E+00  0.0000E+00  0.0000E+00  0.0000E+00  0.0000E+00  0.0000E+00  0.0000E+00  0.0000E+00
    -17.248  0.0000E+00  0.0000E+00  0.0000E+00  0.0000E+00  0.0000E+00  0.0000E+00  0.0000E+00  0.0000E+00  0.0000E+00
    -17.137  0.0000E+00  0.0000E+00  0.0000E+00  0.0000E+00  0.0000E+00  0.0000E+00  0.0000E+00  0.0000E+00  0.0000E+00
    -17.025  0.0000E+00  0.0000E+00  0.0000E+00  0.0000E+00  0.0000E+00  0.0000E+00  0.0000E+00  0.0000E+00  0.0000E+00
    -16.914  0.0000E+00  0.0000E+00  0.0000E+00  0.0000E+00  0.0000E+00  0.0000E+00  0.0000E+00  0.0000E+00  0.0000E+00
    -16.802  0.0000E+00  0.0000E+00  0.0000E+00  0.0000E+00  0.0000E+00  0.0000E+00  0.0000E+00  0.0000E+00  0.0000E+00
    -16.691  0.0000E+00  0.0000E+00  0.0000E+00  0.0000E+00  0.0000E+00  0.0000E+00  0.0000E+00  0.0000E+00  0.0000E+00
    -16.580  0.0000E+00  0.0000E+00  0.0000E+00  0.0000E+00  0.0000E+00  0.0000E+00  0.0000E+00  0.0000E+00  0.0000E+00
    -16.468  0.0000E+00  0.0000E+00  0.0000E+00  0.0000E+00  0.0000E+00  0.0000E+00  0.0000E+00  0.0000E+00  0.0000E+00
    -16.357  0.0000E+00  0.0000E+00  0.0000E+00  0.0000E+00  0.0000E+00  0.0000E+00  0.0000E+00  0.0000E+00  0.0000E+00
    -16.246  0.0000E+00  0.0000E+00  0.0000E+00  0.0000E+00  0.0000E+00  0.0000E+00  0.0000E+00  0.0000E+00  0.0000E+00
    -16.134  0.0000E+00  0.0000E+00  0.0000E+00  0.0000E+00  0.0000E+00  0.0000E+00  0.0000E+00  0.0000E+00  0.0000E+00
    -16.023  0.0000E+00  0.0000E+00  0.0000E+00  0.0000E+00  0.0000E+00  0.0000E+00  0.0000E+00  0.0000E+00  0.0000E+00
    -15.912  0.0000E+00  0.0000E+00  0.0000E+00  0.0000E+00  0.0000E+00  0.0000E+00  0.0000E+00  0.0000E+00  0.0000E+00
    -15.800  0.0000E+00  0.0000E+00  0.0000E+00  0.0000E+00  0.0000E+00  0.0000E+00  0.0000E+00  0.0000E+00  0.0000E+00
    -15.689  0.0000E+00  0.0000E+00  0.0000E+00  0.0000E+00  0.0000E+00  0.0000E+00  0.0000E+00  0.0000E+00  0.0000E+00
    -15.578  0.0000E+00  0.0000E+00  0.0000E+00  0.0000E+00  0.0000E+00  0.0000E+00  0.0000E+00  0.0000E+00  0.0000E+00
    -15.466  0.0000E+00  0.0000E+00  0.0000E+00  0.0000E+00  0.0000E+00  0.0000E+00  0.0000E+00  0.0000E+00  0.0000E+00
    -15.355  0.0000E+00  0.0000E+00  0.0000E+00  0.0000E+00  0.0000E+00  0.0000E+00  0.0000E+00  0.0000E+00  0.0000E+00
    -15.243  0.0000E+00  0.0000E+00  0.0000E+00  0.0000E+00  0.0000E+00  0.0000E+00  0.0000E+00  0.0000E+00  0.0000E+00
    -15.132  0.0000E+00  0.0000E+00  0.0000E+00  0.0000E+00  0.0000E+00  0.0000E+00  0.0000E+00  0.0000E+00  0.0000E+00
    -15.021  0.0000E+00  0.0000E+00  0.0000E+00  0.0000E+00  0.0000E+00  0.0000E+00  0.0000E+00  0.0000E+00  0.0000E+00
    -14.909  0.0000E+00  0.0000E+00  0.0000E+00  0.0000E+00  0.0000E+00  0.0000E+00  0.0000E+00  0.0000E+00  0.0000E+00
    -14.798  0.0000E+00  0.0000E+00  0.0000E+00  0.0000E+00  0.0000E+00  0.0000E+00  0.0000E+00  0.0000E+00  0.0000E+00
    -14.687  0.0000E+00  0.0000E+00  0.0000E+00  0.0000E+00  0.0000E+00  0.0000E+00  0.0000E+00  0.0000E+00  0.0000E+00
    -14.575  0.0000E+00  0.0000E+00  0.0000E+00  0.0000E+00  0.0000E+00  0.0000E+00  0.0000E+00  0.0000E+00  0.0000E+00
    -14.464  0.0000E+00  0.0000E+00  0.0000E+00  0.0000E+00  0.0000E+00  0.0000E+00  0.0000E+00  0.0000E+00  0.0000E+00
    -14.353  0.0000E+00  0.0000E+00  0.0000E+00  0.0000E+00  0.0000E+00  0.0000E+00  0.0000E+00  0.0000E+00  0.0000E+00
    -14.241  0.0000E+00  0.0000E+00  0.0000E+00  0.0000E+00  0.0000E+00  0.0000E+00  0.0000E+00  0.0000E+00  0.0000E+00
    -14.130  0.0000E+00  0.0000E+00  0.0000E+00  0.0000E+00  0.0000E+00  0.0000E+00  0.0000E+00  0.0000E+00  0.0000E+00
    -14.019  0.0000E+00  0.0000E+00  0.0000E+00  0.0000E+00  0.0000E+00  0.0000E+00  0.0000E+00  0.0000E+00  0.0000E+00
    -13.907  0.0000E+00  0.0000E+00  0.0000E+00  0.0000E+00  0.0000E+00  0.0000E+00  0.0000E+00  0.0000E+00  0.0000E+00
    -13.796  0.0000E+00  0.0000E+00  0.0000E+00  0.0000E+00  0.0000E+00  0.0000E+00  0.0000E+00  0.0000E+00  0.0000E+00
    -13.684  0.0000E+00  0.0000E+00  0.0000E+00  0.0000E+00  0.0000E+00  0.0000E+00  0.0000E+00  0.0000E+00  0.0000E+00
    -13.573  0.0000E+00  0.0000E+00  0.0000E+00  0.0000E+00  0.0000E+00  0.0000E+00  0.0000E+00  0.0000E+00  0.0000E+00
    -13.462  0.0000E+00  0.0000E+00  0.0000E+00  0.0000E+00  0.0000E+00  0.0000E+00  0.0000E+00  0.0000E+00  0.0000E+00
    -13.350  0.0000E+00  0.0000E+00  0.0000E+00  0.0000E+00  0.0000E+00  0.0000E+00  0.0000E+00  0.0000E+00  0.0000E+00
    -13.239  0.0000E+00  0.0000E+00  0.0000E+00  0.0000E+00  0.0000E+00  0.0000E+00  0.0000E+00  0.0000E+00  0.0000E+00
    -13.128  0.0000E+00  0.0000E+00  0.0000E+00  0.0000E+00  0.0000E+00  0.0000E+00  0.0000E+00  0.0000E+00  0.0000E+00
    -13.016  0.0000E+00  0.0000E+00  0.0000E+00  0.0000E+00  0.0000E+00  0.0000E+00  0.0000E+00  0.0000E+00  0.0000E+00
    -12.905  0.0000E+00  0.0000E+00  0.0000E+00  0.0000E+00  0.0000E+00  0.0000E+00  0.0000E+00  0.0000E+00  0.0000E+00
    -12.794  0.0000E+00  0.0000E+00  0.0000E+00  0.0000E+00  0.0000E+00  0.0000E+00  0.0000E+00  0.0000E+00  0.0000E+00
    -12.682  0.0000E+00  0.0000E+00  0.0000E+00  0.0000E+00  0.0000E+00  0.0000E+00  0.0000E+00  0.0000E+00  0.0000E+00
    -12.571  0.0000E+00  0.0000E+00  0.0000E+00  0.0000E+00  0.0000E+00  0.0000E+00  0.0000E+00  0.0000E+00  0.0000E+00
    -12.460  0.0000E+00  0.0000E+00  0.0000E+00  0.0000E+00  0.0000E+00  0.0000E+00  0.0000E+00  0.0000E+00  0.0000E+00
    -12.348  0.0000E+00  0.0000E+00  0.0000E+00  0.0000E+00  0.0000E+00  0.0000E+00  0.0000E+00  0.0000E+00  0.0000E+00
    -12.237  0.0000E+00  0.0000E+00  0.0000E+00  0.0000E+00  0.0000E+00  0.0000E+00  0.0000E+00  0.0000E+00  0.0000E+00
    -12.125  0.0000E+00  0.0000E+00  0.0000E+00  0.0000E+00  0.0000E+00  0.0000E+00  0.0000E+00  0.0000E+00  0.0000E+00
    -12.014  0.0000E+00  0.0000E+00  0.0000E+00  0.0000E+00  0.0000E+00  0.0000E+00  0.0000E+00  0.0000E+00  0.0000E+00
    -11.903  0.0000E+00  0.0000E+00  0.0000E+00  0.0000E+00  0.0000E+00  0.0000E+00  0.0000E+00  0.0000E+00  0.0000E+00
    -11.791  0.0000E+00  0.0000E+00  0.0000E+00  0.0000E+00  0.0000E+00  0.0000E+00  0.0000E+00  0.0000E+00  0.0000E+00
    -11.680  0.0000E+00  0.0000E+00  0.0000E+00  0.0000E+00  0.0000E+00  0.0000E+00  0.0000E+00  0.0000E+00  0.0000E+00
    -11.569  0.0000E+00  0.0000E+00  0.0000E+00  0.0000E+00  0.0000E+00  0.0000E+00  0.0000E+00  0.0000E+00  0.0000E+00
    -11.457  0.0000E+00  0.0000E+00  0.0000E+00  0.0000E+00  0.0000E+00  0.0000E+00  0.0000E+00  0.0000E+00  0.0000E+00
    -11.346  0.0000E+00  0.0000E+00  0.0000E+00  0.0000E+00  0.0000E+00  0.0000E+00  0.0000E+00  0.0000E+00  0.0000E+00
    -11.235  0.0000E+00  0.0000E+00  0.0000E+00  0.0000E+00  0.0000E+00  0.0000E+00  0.0000E+00  0.0000E+00  0.0000E+00
    -11.123  0.0000E+00  0.0000E+00  0.0000E+00  0.0000E+00  0.0000E+00  0.0000E+00  0.0000E+00  0.0000E+00  0.0000E+00
    -11.012  0.0000E+00  0.0000E+00  0.0000E+00  0.0000E+00  0.0000E+00  0.0000E+00  0.0000E+00  0.0000E+00  0.0000E+00
    -10.901  0.0000E+00  0.0000E+00  0.0000E+00  0.0000E+00  0.0000E+00  0.0000E+00  0.0000E+00  0.0000E+00  0.0000E+00
    -10.789  0.0000E+00  0.0000E+00  0.0000E+00  0.0000E+00  0.0000E+00  0.0000E+00  0.0000E+00  0.0000E+00  0.0000E+00
    -10.678  0.0000E+00  0.0000E+00  0.0000E+00  0.0000E+00  0.0000E+00  0.0000E+00  0.0000E+00  0.0000E+00  0.0000E+00
    -10.566  0.0000E+00  0.0000E+00  0.0000E+00  0.0000E+00  0.0000E+00  0.0000E+00  0.0000E+00  0.0000E+00  0.0000E+00
    -10.455  0.0000E+00  0.0000E+00  0.0000E+00  0.0000E+00  0.0000E+00  0.0000E+00  0.0000E+00  0.0000E+00  0.0000E+00
    -10.344  0.0000E+00  0.0000E+00  0.0000E+00  0.0000E+00  0.0000E+00  0.0000E+00  0.0000E+00  0.0000E+00  0.0000E+00
    -10.232  0.0000E+00  0.0000E+00  0.0000E+00  0.0000E+00  0.0000E+00  0.0000E+00  0.0000E+00  0.0000E+00  0.0000E+00
    -10.121  0.0000E+00  0.0000E+00  0.0000E+00  0.0000E+00  0.0000E+00  0.0000E+00  0.0000E+00  0.0000E+00  0.0000E+00
    -10.010  0.0000E+00  0.0000E+00  0.0000E+00  0.0000E+00  0.0000E+00  0.0000E+00  0.0000E+00  0.0000E+00  0.0000E+00
     -9.898  0.0000E+00  0.0000E+00  0.0000E+00  0.0000E+00  0.0000E+00  0.0000E+00  0.0000E+00  0.0000E+00  0.0000E+00
     -9.787  0.0000E+00  0.0000E+00  0.0000E+00  0.0000E+00  0.0000E+00  0.0000E+00  0.0000E+00  0.0000E+00  0.0000E+00
     -9.676  0.0000E+00  0.0000E+00  0.0000E+00  0.0000E+00  0.0000E+00  0.0000E+00  0.0000E+00  0.0000E+00  0.0000E+00
     -9.564  0.0000E+00  0.0000E+00  0.0000E+00  0.0000E+00  0.0000E+00  0.0000E+00  0.0000E+00  0.0000E+00  0.0000E+00
     -9.453  0.1463E-15  0.2245E-29  0.3678E-19  0.2530E-29  0.5115E-31  0.6815E-29  0.8127E-22  0.4875E-29  0.9523E-19
     -9.342  0.1204E-06  0.2748E-11  0.4207E-10  0.1968E-11  0.1859E-15  0.3384E-12  0.8282E-13  0.2534E-12  0.7991E-10
     -9.230  0.8282E-02  0.1133E-05  0.5293E-05  0.8114E-06  0.7727E-10  0.1396E-06  0.9070E-08  0.1045E-06  0.5809E-05
     -9.119  0.2428E+00  0.1305E-03  0.5123E-03  0.9293E-04  0.1811E-07  0.1613E-04  0.8002E-06  0.1201E-04  0.2170E-03
     -9.007  0.1737E+00  0.4512E-03  0.1772E-02  0.3176E-03  0.1338E-06  0.5632E-04  0.3010E-05  0.4144E-04  0.3418E-03
     -8.896  0.1137E+00  0.8335E-03  0.2615E-02  0.5750E-03  0.4423E-06  0.1056E-03  0.5270E-05  0.7616E-04  0.4247E-03
     -8.785  0.8658E-01  0.1105E-02  0.3331E-02  0.7350E-03  0.9163E-06  0.1434E-03  0.7835E-05  0.9970E-04  0.5175E-03
     -8.673  0.6436E-01  0.6503E-03  0.3938E-02  0.4303E-03  0.5564E-06  0.8459E-04  0.1057E-04  0.5853E-04  0.6077E-03
     -8.562  0.1020E+00  0.2304E-02  0.8059E-02  0.1389E-02  0.2434E-05  0.3111E-03  0.3240E-04  0.1946E-03  0.1416E-02
     -8.451  0.2030E+00  0.2858E-02  0.2654E-01  0.2887E-03  0.5135E-06  0.4670E-03  0.8891E-04  0.4054E-04  0.4260E-02
     -8.339  0.2188E+00  0.9158E-02  0.3055E-01  0.1764E-02  0.3779E-05  0.1455E-02  0.4347E-04  0.2562E-03  0.3788E-02
     -8.228  0.1247E+00  0.1033E-01  0.1982E-01  0.5094E-03  0.1092E-05  0.1733E-02  0.3483E-04  0.7400E-04  0.2621E-02
     -8.117  0.1076E+00  0.1749E-01  0.1754E-01  0.1428E-02  0.3340E-05  0.2928E-02  0.3286E-04  0.2159E-03  0.2381E-02
     -8.005  0.9550E-01  0.3505E-01  0.1711E-01  0.1388E-02  0.3247E-05  0.6015E-02  0.3348E-04  0.2099E-03  0.2370E-02
     -7.894  0.1069E+00  0.1591E-01  0.2181E-01  0.7350E-03  0.1694E-05  0.2727E-02  0.4449E-04  0.1158E-03  0.3086E-02
     -7.783  0.9279E-01  0.6227E-02  0.1998E-01  0.2221E-02  0.5119E-05  0.9250E-03  0.4609E-04  0.3499E-03  0.2949E-02
     -7.671  0.1763E-01  0.4425E-02  0.1288E-01  0.7482E-03  0.1691E-05  0.6753E-03  0.3343E-04  0.1219E-03  0.2011E-02
     -7.560  0.1704E-01  0.1236E-01  0.1710E-01  0.1384E-02  0.3239E-05  0.1897E-02  0.4266E-04  0.2259E-03  0.2729E-02
     -7.448  0.7812E-02  0.3064E-01  0.5216E-01  0.1819E-02  0.9426E-06  0.4791E-02  0.1207E-03  0.3491E-03  0.8519E-02
     -7.337  0.2796E-02  0.2437E-01  0.8948E-01  0.3512E-01  0.9419E-06  0.4095E-02  0.2139E-03  0.6433E-02  0.1506E-01
     -7.226  0.8450E-03  0.2378E-02  0.2296E-02  0.2186E-01  0.5129E-06  0.3919E-03  0.6905E-05  0.3848E-02  0.4026E-03
     -7.114  0.1635E-05  0.8760E-06  0.3639E-06  0.2203E-03  0.1041E-08  0.1412E-06  0.2529E-08  0.3864E-04  0.5908E-07
     -7.003  0.5258E-12  0.2380E-12  0.9661E-13  0.6921E-09  0.3356E-15  0.3829E-13  0.7490E-15  0.1214E-09  0.1530E-13
     -6.892  0.0000E+00  0.0000E+00  0.0000E+00  0.0000E+00  0.0000E+00  0.0000E+00  0.0000E+00  0.0000E+00  0.0000E+00
     -6.780  0.0000E+00  0.0000E+00  0.0000E+00  0.0000E+00  0.0000E+00  0.0000E+00  0.0000E+00  0.0000E+00  0.0000E+00
     -6.669  0.0000E+00  0.0000E+00  0.0000E+00  0.0000E+00  0.0000E+00  0.0000E+00  0.0000E+00  0.0000E+00  0.0000E+00
     -6.558  0.0000E+00  0.0000E+00  0.0000E+00  0.0000E+00  0.0000E+00  0.0000E+00  0.0000E+00  0.0000E+00  0.0000E+00
     -6.446  0.0000E+00  0.0000E+00  0.0000E+00  0.0000E+00  0.0000E+00  0.0000E+00  0.0000E+00  0.0000E+00  0.0000E+00
     -6.335  0.0000E+00  0.0000E+00  0.0000E+00  0.0000E+00  0.0000E+00  0.0000E+00  0.0000E+00  0.0000E+00  0.0000E+00
     -6.224  0.0000E+00  0.0000E+00  0.0000E+00  0.0000E+00  0.0000E+00  0.0000E+00  0.0000E+00  0.0000E+00  0.0000E+00
     -6.112  0.0000E+00  0.0000E+00  0.0000E+00  0.0000E+00  0.0000E+00  0.0000E+00  0.0000E+00  0.0000E+00  0.0000E+00
     -6.001  0.0000E+00  0.0000E+00  0.0000E+00  0.0000E+00  0.0000E+00  0.0000E+00  0.0000E+00  0.0000E+00  0.0000E+00
     -5.889  0.0000E+00  0.0000E+00  0.0000E+00  0.0000E+00  0.0000E+00  0.0000E+00  0.0000E+00  0.0000E+00  0.0000E+00
     -5.778  0.0000E+00  0.0000E+00  0.0000E+00  0.0000E+00  0.0000E+00  0.0000E+00  0.0000E+00  0.0000E+00  0.0000E+00
     -5.667  0.0000E+00  0.0000E+00  0.0000E+00  0.0000E+00  0.0000E+00  0.0000E+00  0.0000E+00  0.0000E+00  0.0000E+00
     -5.555  0.0000E+00  0.0000E+00  0.0000E+00  0.0000E+00  0.0000E+00  0.0000E+00  0.0000E+00  0.0000E+00  0.0000E+00
     -5.444  0.0000E+00  0.0000E+00  0.0000E+00  0.0000E+00  0.0000E+00  0.0000E+00  0.0000E+00  0.0000E+00  0.0000E+00
     -5.333  0.0000E+00  0.0000E+00  0.0000E+00  0.0000E+00  0.0000E+00  0.0000E+00  0.0000E+00  0.0000E+00  0.0000E+00
     -5.221  0.0000E+00  0.0000E+00  0.0000E+00  0.0000E+00  0.0000E+00  0.0000E+00  0.0000E+00  0.0000E+00  0.0000E+00
     -5.110  0.0000E+00  0.0000E+00  0.0000E+00  0.0000E+00  0.0000E+00  0.0000E+00  0.0000E+00  0.0000E+00  0.0000E+00
     -4.999  0.0000E+00  0.0000E+00  0.0000E+00  0.0000E+00  0.0000E+00  0.0000E+00  0.0000E+00  0.0000E+00  0.0000E+00
     -4.887  0.0000E+00  0.0000E+00  0.0000E+00  0.0000E+00  0.0000E+00  0.0000E+00  0.0000E+00  0.0000E+00  0.0000E+00
     -4.776  0.0000E+00  0.0000E+00  0.0000E+00  0.0000E+00  0.0000E+00  0.0000E+00  0.0000E+00  0.0000E+00  0.0000E+00
     -4.665  0.0000E+00  0.0000E+00  0.0000E+00  0.0000E+00  0.0000E+00  0.0000E+00  0.0000E+00  0.0000E+00  0.0000E+00
     -4.553  0.0000E+00  0.0000E+00  0.0000E+00  0.0000E+00  0.0000E+00  0.0000E+00  0.0000E+00  0.0000E+00  0.0000E+00
     -4.442  0.0000E+00  0.0000E+00  0.0000E+00  0.0000E+00  0.0000E+00  0.0000E+00  0.0000E+00  0.0000E+00  0.0000E+00
     -4.330  0.0000E+00  0.0000E+00  0.0000E+00  0.0000E+00  0.0000E+00  0.0000E+00  0.0000E+00  0.0000E+00  0.0000E+00
     -4.219  0.0000E+00  0.0000E+00  0.0000E+00  0.0000E+00  0.0000E+00  0.0000E+00  0.0000E+00  0.0000E+00  0.0000E+00
     -4.108  0.0000E+00  0.0000E+00  0.0000E+00  0.0000E+00  0.0000E+00  0.0000E+00  0.0000E+00  0.0000E+00  0.0000E+00
     -3.996  0.0000E+00  0.0000E+00  0.0000E+00  0.0000E+00  0.0000E+00  0.0000E+00  0.0000E+00  0.0000E+00  0.0000E+00
     -3.885  0.0000E+00  0.0000E+00  0.0000E+00  0.0000E+00  0.0000E+00  0.0000E+00  0.0000E+00  0.0000E+00  0.0000E+00
     -3.774  0.3886E-11  0.1180E-16  0.4636E-14  0.5955E-17  0.9855E-14  0.2630E-17  0.5986E-14  0.1288E-17  0.1090E-14
     -3.662  0.9114E-04  0.6058E-09  0.1115E-06  0.3625E-09  0.1964E-06  0.1366E-09  0.1709E-06  0.8572E-10  0.2363E-07
     -3.551  0.2602E+00  0.5125E-05  0.3488E-03  0.3512E-05  0.4313E-03  0.1256E-05  0.5878E-03  0.1020E-05  0.6448E-04
     -3.440  0.1508E+01  0.4313E-03  0.9424E-02  0.1790E-03  0.1730E-02  0.1053E-03  0.2917E-02  0.8019E-04  0.5077E-03