    4    4    1    1
  0.2841110E+02  0.4300141E-09  0.4300141E-09  0.6145861E-09  0.5000000E-15
  1.000000000000000E-004
  CAR 
 Ga2BiAs                                 
     26     36     20
 
  0.5000000E+00  0.5000000E+00  0.0000000E+00  0.2777778E-01
    1      -19.291628   1.000000
    2      -19.291628   1.000000
    3      -19.256585   1.000000
    4      -19.254593   1.000000
    5      -19.253884   1.000000
    6       -7.499449   1.000000
    7       -7.302598   1.000000
    8       -3.536865   1.000000
    9       -3.536865   1.000000
   10        0.322149   1.000000
   11        0.588999   1.000000
   12        0.588999   1.000000
   13        0.891272   1.000000
   14        3.870039   0.000000
   15        4.228139   0.000000
   16        4.228139   0.000000
   17        4.666504   0.000000
   18       10.948485   0.000000
   19       11.077313   0.000000
   20       11.077320   0.000000
 
  0.4545455E+00  0.4545455E+00  0.0000000E+00  0.2777778E-01
    1      -19.291491   1.000000
    2      -19.291429   1.000000
    3      -19.257273   1.000000
    4      -19.254388   1.000000
    5      -19.254021   1.000000
    6       -7.532035   1.000000
    7       -7.330261   1.000000
    8       -3.526315   1.000000
    9       -3.441749   1.000000
   10        0.294187   1.000000
   11        0.541192   1.000000
   12        0.618688   1.000000
   13        0.875689   1.000000
   14        3.945545   0.000000
   15        4.232759   0.000000
   16        4.375553   0.000000
   17        4.792252   0.000000
   18       10.649987   0.000000
   19       10.785004   0.000000
   20       11.037584   0.000000
 
  0.4090909E+00  0.4090909E+00  0.0000000E+00  0.2777778E-01
    1      -19.291059   1.000000
    2      -19.290830   1.000000
    3      -19.259266   1.000000
    4      -19.254457   1.000000
    5      -19.253781   1.000000
    6       -7.657961   1.000000
    7       -7.367034   1.000000
    8       -3.497216   1.000000
    9       -3.175441   1.000000
   10        0.190728   1.000000
   11        0.424428   1.000000
   12        0.707283   1.000000
   13        0.887848   1.000000
   14        4.064147   0.000000
   15        4.368234   0.000000
   16        4.777525   0.000000
   17        5.123487   0.000000
   18       10.069452   0.000000
   19       10.108754   0.000000
   20       10.715340   0.000000
 
  0.3636364E+00  0.3636364E+00  0.0000000E+00  0.2777778E-01
    1      -19.290387   1.000000
    2      -19.289884   1.000000
    3      -19.262386   1.000000
    4      -19.255136   1.000000
    5      -19.252822   1.000000
    6       -7.869644   1.000000
    7       -7.381651   1.000000
    8       -3.457158   1.000000
    9       -2.779816   1.000000
   10        0.025340   1.000000
   11        0.293114   1.000000
   12        0.853360   1.000000
   13        0.990448   1.000000
   14        4.146460   0.000000
   15        4.674243   0.000000
   16        5.352034   0.000000
   17        5.625064   0.000000
   18        9.295454   0.000000
   19        9.365443   0.000000
   20       10.194887   0.000000
 
  0.3181818E+00  0.3181818E+00  0.0000000E+00  0.2777778E-01
    1      -19.289572   1.000000
    2      -19.288658   1.000000
    3      -19.266356   1.000000
    4      -19.256031   1.000000
    5      -19.251620   1.000000
    6       -8.117221   1.000000
    7       -7.387305   1.000000
    8       -3.417965   1.000000
    9       -2.296514   1.000000
   10       -0.133304   1.000000
   11        0.194947   1.000000
   12        1.054320   1.000000
   13        1.177533   1.000000
   14        4.264345   0.000000
   15        5.005806   0.000000
   16        6.008307   0.000000
   17        6.272901   0.000000
   18        8.468478   0.000000
   19        8.637990   0.000000
   20        9.592759   0.000000
 
  0.2727273E+00  0.2727273E+00  0.0000000E+00  0.2777778E-01
    1      -19.288714   1.000000
    2      -19.287255   1.000000
    3      -19.270767   1.000000
    4      -19.257057   1.000000
    5      -19.250252   1.000000
    6       -8.366456   1.000000
    7       -7.392005   1.000000
    8       -3.392953   1.000000
    9       -1.759292   1.000000
   10       -0.228676   1.000000
   11        0.162339   1.000000
   12        1.305796   1.000000
   13        1.431083   1.000000
   14        4.433106   0.000000
   15        5.252798   0.000000
   16        6.549685   0.000000
   17        6.995871   0.000000
   18        7.731107   0.000000
   19        8.082560   0.000000
   20        8.971323   0.000000
 
  0.2272727E+00  0.2272727E+00  0.0000000E+00  0.2777778E-01
    1      -19.288027   1.000000
    2      -19.285779   1.000000
    3      -19.275110   1.000000
    4      -19.258139   1.000000
    5      -19.248852   1.000000
    6       -8.597225   1.000000
    7       -7.398527   1.000000
    8       -3.391576   1.000000
    9       -1.198648   1.000000
   10       -0.232192   1.000000
   11        0.218089   1.000000
   12        1.600752   1.000000
   13        1.737537   1.000000
   14        4.628767   0.000000
   15        5.296329   0.000000
   16        6.429196   0.000000
   17        6.915736   0.000000
   18        7.957606   0.000000
   19        8.129769   0.000000
   20        8.451372   0.000000
 
  0.1818182E+00  0.1818182E+00  0.0000000E+00  0.2777778E-01
    1      -19.287929   1.000000
    2      -19.284342   1.000000
    3      -19.278681   1.000000
    4      -19.259205   1.000000
    5      -19.247516   1.000000
    6       -8.797252   1.000000
    7       -7.407245   1.000000
    8       -3.414161   1.000000
    9       -0.654063   1.000000
   10       -0.140806   1.000000
   11        0.386163   1.000000
   12        1.927819   1.000000
   13        2.083020   1.000000
   14        4.676091   0.000000
   15        5.228347   0.000000
   16        5.829561   0.000000
   17        6.316195   0.000000
   18        7.687618   0.000000
   19        8.037619   0.000000
   20        8.770025   0.000000
 
  0.1363636E+00  0.1363636E+00  0.0000000E+00  0.2777778E-01
    1      -19.288973   1.000000
    2      -19.283074   1.000000
    3      -19.280681   1.000000
    4      -19.260173   1.000000
    5      -19.246380   1.000000
    6       -8.958847   1.000000
    7       -7.417095   1.000000
    8       -3.451682   1.000000
    9       -0.186405   1.000000
   10        0.025131   1.000000
   11        0.698588   1.000000
   12        2.267905   1.000000
   13        2.447512   1.000000
   14        4.306443   0.000000
   15        5.192652   0.000000
   16        5.385129   0.000000
   17        5.743464   0.000000
   18        7.135827   0.000000
   19        7.419470   0.000000
   20        9.527140   0.000000
 
  0.9090909E-01  0.9090909E-01  0.0000000E+00  0.2777778E-01
    1      -19.290765   1.000000
    2      -19.282065   1.000000
    3      -19.281226   1.000000
    4      -19.260939   1.000000
    5      -19.245494   1.000000
    6       -9.077168   1.000000
    7       -7.426228   1.000000
    8       -3.490826   1.000000
    9        0.157887   1.000000
   10        0.223861   1.000000
   11        1.146155   1.000000
   12        2.587744   1.000000
   13        2.796617   1.000000
   14        3.814410   0.000000
   15        4.644707   0.000000
   16        5.036802   0.000000
   17        5.804648   0.000000
   18        6.657219   0.000000
   19        6.884423   0.000000
   20        9.545707   0.000000
 
  0.4545455E-01  0.4545455E-01  0.0000000E+00  0.2777778E-01
    1      -19.292240   1.000000
    2      -19.281417   1.000000
    3      -19.281236   1.000000
    4      -19.261435   1.000000
    5      -19.244941   1.000000
    6       -9.149240   1.000000
    7       -7.432682   1.000000
    8       -3.519525   1.000000
    9        0.379867   1.000000
   10        0.392896   1.000000
   11        1.610251   1.000000
   12        2.831347   1.000000
   13        3.069401   0.972855
   14        3.382409   0.000000
   15        4.262948   0.000000
   16        4.576834   0.000000
   17        6.072077   0.000000
   18        6.316334   0.000000
   19        6.500949   0.000000
   20        9.079012   0.000000
 
  0.0000000E+00  0.0000000E+00  0.0000000E+00  0.2777778E-01
    1      -19.292784   1.000000
    2      -19.281194   1.000000
    3      -19.281194   1.000000
    4      -19.261601   1.000000
    5      -19.244736   1.000000
    6       -9.173413   1.000000
    7       -7.435007   1.000000
    8       -3.529971   1.000000
    9        0.461021   1.000000
   10        0.461021   1.000000
   11        1.843508   1.000000
   12        2.925621   1.000000
   13        3.177817   0.126735
   14        3.177818   0.126732
   15        4.122750   0.000000
   16        4.391172   0.000000
   17        6.189279   0.000000
   18        6.189279   0.000000
   19        6.356673   0.000000
   20        8.894676   0.000000
 
  0.0000000E+00  0.0000000E+00  0.0000000E+00  0.2777778E-01
    1      -19.292784   1.000000
    2      -19.281194   1.000000
    3      -19.281194   1.000000
    4      -19.261601   1.000000
    5      -19.244736   1.000000
    6       -9.173413   1.000000
    7       -7.435007   1.000000
    8       -3.529971   1.000000
    9        0.461021   1.000000
   10        0.461021   1.000000
   11        1.843508   1.000000
   12        2.925621   1.000000
   13        3.177817   0.126735
   14        3.177818   0.126732
   15        4.122750   0.000000
   16        4.391172   0.000000
   17        6.189279   0.000000
   18        6.189279   0.000000
   19        6.356673   0.000000
   20        8.894677   0.000000
 
  0.0000000E+00  0.0000000E+00  0.4545455E-01  0.2777778E-01
    1      -19.292785   1.000000
    2      -19.281199   1.000000
    3      -19.281199   1.000000
    4      -19.261597   1.000000
    5      -19.244750   1.000000
    6       -9.167486   1.000000
    7       -7.450194   1.000000
    8       -3.505855   1.000000
    9        0.467013   1.000000
   10        0.467013   1.000000
   11        1.736803   1.000000
   12        3.025664   0.999215
   13        3.153514   0.324711
   14        3.153515   0.324707
   15        4.124788   0.000000
   16        4.408507   0.000000
   17        6.223752   0.000000
   18        6.223752   0.000000
   19        6.329987   0.000000
   20        8.939939   0.000000
 
  0.0000000E+00  0.0000000E+00  0.9090909E-01  0.2777778E-01
    1      -19.292780   1.000000
    2      -19.281205   1.000000
    3      -19.281205   1.000000
    4      -19.261595   1.000000
    5      -19.244753   1.000000
    6       -9.149694   1.000000
    7       -7.494489   1.000000
    8       -3.434786   1.000000
    9        0.484850   1.000000
   10        0.484850   1.000000
   11        1.489625   1.000000
   12        3.084268   0.933712
   13        3.084268   0.933711
   14        3.248955   0.000805
   15        4.137785   0.000000
   16        4.456161   0.000000
   17        6.256516   0.000000
   18        6.323568   0.000000
   19        6.323568   0.000000
   20        9.069395   0.000000
 
  0.0000000E+00  0.0000000E+00  0.1363636E+00  0.2777778E-01
    1      -19.292785   1.000000
    2      -19.281213   1.000000
    3      -19.281213   1.000000
    4      -19.261561   1.000000
    5      -19.244756   1.000000
    6       -9.120131   1.000000
    7       -7.564427   1.000000
    8       -3.320270   1.000000
    9        0.514067   1.000000
   10        0.514067   1.000000
   11        1.186500   1.000000
   12        2.979403   0.999996
   13        2.979403   0.999996
   14        3.496435   0.000000
   15        4.180748   0.000000
   16        4.525414   0.000000
   17        6.152217   0.000000
   18        6.479626   0.000000
   19        6.479626   0.000000
   20        9.267891   0.000000
 
  0.0000000E+00  0.0000000E+00  0.1818182E+00  0.2777778E-01
    1      -19.292786   1.000000
    2      -19.281217   1.000000
    3      -19.281217   1.000000
    4      -19.261539   1.000000
    5      -19.244755   1.000000
    6       -9.078990   1.000000
    7       -7.655199   1.000000
    8       -3.167210   1.000000
    9        0.553825   1.000000
   10        0.553825   1.000000
   11        0.862260   1.000000
   12        2.850454   1.000000
   13        2.850455   1.000000
   14        3.703399   0.000000
   15        4.283764   0.000000
   16        4.608153   0.000000
   17        6.035790   0.000000
   18        6.680818   0.000000
   19        6.680819   0.000000
   20        9.519414   0.000000
 
  0.0000000E+00  0.0000000E+00  0.2272727E+00  0.2777778E-01
    1      -19.292787   1.000000
    2      -19.281225   1.000000
    3      -19.281225   1.000000
    4      -19.261507   1.000000
    5      -19.244757   1.000000
    6       -9.026504   1.000000
    7       -7.761529   1.000000
    8       -2.980975   1.000000
    9        0.530282   1.000000
   10        0.602777   1.000000
   11        0.602778   1.000000
   12        2.708582   1.000000
   13        2.708583   1.000000
   14        3.835778   0.000000
   15        4.459721   0.000000
   16        4.699373   0.000000
   17        5.925361   0.000000
   18        6.916745   0.000000
   19        6.916745   0.000000
   20       10.580204   0.000000
 
  0.0000000E+00  0.0000000E+00  0.2727273E+00  0.2777778E-01
    1      -19.292786   1.000000
    2      -19.281237   1.000000
    3      -19.281237   1.000000
    4      -19.261480   1.000000
    5      -19.244757   1.000000
    6       -8.962999   1.000000
    7       -7.878367   1.000000
    8       -2.766720   1.000000
    9        0.196587   1.000000
   10        0.658851   1.000000
   11        0.658851   1.000000
   12        2.563679   1.000000
   13        2.563679   1.000000
   14        3.914181   0.000000
   15        4.648533   0.000000
   16        4.813583   0.000000
   17        5.838171   0.000000
   18        7.178761   0.000000
   19        7.178761   0.000000
   20        9.993908   0.000000
 
  0.0000000E+00  0.0000000E+00  0.3181818E+00  0.2777778E-01
    1      -19.292786   1.000000
    2      -19.281244   1.000000
    3      -19.281244   1.000000
    4      -19.261443   1.000000
    5      -19.244757   1.000000
    6       -8.888952   1.000000
    7       -8.001241   1.000000
    8       -2.529031   1.000000
    9       -0.135537   1.000000
   10        0.718913   1.000000
   11        0.718914   1.000000
   12        2.424678   1.000000
   13        2.424678   1.000000
   14        3.969977   0.000000
   15        4.748238   0.000000
   16        4.994324   0.000000
   17        5.789151   0.000000
   18        7.459918   0.000000
   19        7.459918   0.000000
   20        9.692621   0.000000
 
  0.0000000E+00  0.0000000E+00  0.3636364E+00  0.2777778E-01
    1      -19.292794   1.000000
    2      -19.281259   1.000000
    3      -19.281259   1.000000
    4      -19.261420   1.000000
    5      -19.244766   1.000000
    6       -8.805019   1.000000
    7       -8.126283   1.000000
    8       -2.271808   1.000000
    9       -0.463984   1.000000
   10        0.778303   1.000000
   11        0.778303   1.000000
   12        2.300343   1.000000
   13        2.300343   1.000000
   14        4.016681   0.000000
   15        4.776342   0.000000
   16        5.186998   0.000000
   17        5.783928   0.000000
   18        7.754333   0.000000
   19        7.754333   0.000000
   20        9.460267   0.000000
 
  0.0000000E+00  0.0000000E+00  0.4090909E+00  0.2777778E-01
    1      -19.292799   1.000000
    2      -19.281282   1.000000
    3      -19.281282   1.000000
    4      -19.261408   1.000000
    5      -19.244764   1.000000
    6       -8.712263   1.000000
    7       -8.250016   1.000000
    8       -1.998278   1.000000
    9       -0.787152   1.000000
   10        0.830424   1.000000
   11        0.830424   1.000000
   12        2.200072   1.000000
   13        2.200072   1.000000
   14        4.056038   0.000000
   15        4.770924   0.000000
   16        5.340722   0.000000
   17        5.810498   0.000000
   18        8.055646   0.000000
   19        8.055646   0.000000
   20        9.322973   0.000000
 
  0.0000000E+00  0.0000000E+00  0.4545455E+00  0.2777778E-01
    1      -19.292800   1.000000
    2      -19.281283   1.000000
    3      -19.281282   1.000000
    4      -19.261383   1.000000
    5      -19.244766   1.000000
    6       -8.613521   1.000000
    7       -8.367987   1.000000
    8       -1.711146   1.000000
    9       -1.103571   1.000000
   10        0.867023   1.000000
   11        0.867023   1.000000
   12        2.133914   1.000000
   13        2.133914   1.000000
   14        4.083879   0.000000
   15        4.755383   0.000000
   16        5.437711   0.000000
   17        5.842885   0.000000
   18        8.349976   0.000000
   19        8.349976   0.000000
   20        9.098557   0.000000
 
  0.0000000E+00  0.0000000E+00  0.5000000E+00  0.2777778E-01
    1      -19.292802   1.000000
    2      -19.281282   1.000000
    3      -19.281282   1.000000
    4      -19.261382   1.000000
    5      -19.244759   1.000000
    6       -8.539594   1.000000
    7       -8.448435   1.000000
    8       -1.423564   1.000000
    9       -1.400835   1.000000
   10        0.880337   1.000000
   11        0.880337   1.000000
   12        2.110640   1.000000
   13        2.110641   1.000000
   14        4.094146   0.000000
   15        4.747835   0.000000
   16        5.470768   0.000000
   17        5.856812   0.000000
   18        8.536303   0.000000
   19        8.536304   0.000000
   20        8.909356   0.000000
 
  0.0000000E+00  0.0000000E+00  0.5000000E+00  0.2777778E-01
    1      -19.292802   1.000000
    2      -19.281282   1.000000
    3      -19.281282   1.000000
    4      -19.261382   1.000000
    5      -19.244759   1.000000
    6       -8.539594   1.000000
    7       -8.448435   1.000000
    8       -1.423564   1.000000
    9       -1.400835   1.000000
   10        0.880337   1.000000
   11        0.880337   1.000000
   12        2.110640   1.000000
   13        2.110641   1.000000
   14        4.094146   0.000000
   15        4.747835   0.000000
   16        5.470768   0.000000
   17        5.856812   0.000000
   18        8.536303   0.000000
   19        8.536304   0.000000
   20        8.909356   0.000000
 
  0.0000000E+00  0.4545455E-01  0.5000000E+00  0.2777778E-01
    1      -19.292526   1.000000
    2      -19.281432   1.000000
    3      -19.281277   1.000000
    4      -19.261287   1.000000
    5      -19.244843   1.000000
    6       -8.530631   1.000000
    7       -8.438765   1.000000
    8       -1.460442   1.000000
    9       -1.435508   1.000000
   10        0.871387   1.000000
   11        0.887341   1.000000
   12        2.043833   1.000000
   13        2.120315   1.000000
   14        4.155676   0.000000
   15        4.822535   0.000000
   16        5.496954   0.000000
   17        5.873158   0.000000
   18        8.388687   0.000000
   19        8.497913   0.000000
   20        8.673999   0.000000
 
  0.0000000E+00  0.9090909E-01  0.5000000E+00  0.2777778E-01
    1      -19.291761   1.000000
    2      -19.281843   1.000000
    3      -19.281226   1.000000
    4      -19.261027   1.000000
    5      -19.245128   1.000000
    6       -8.504135   1.000000
    7       -8.410175   1.000000
    8       -1.593428   1.000000
    9       -1.513588   1.000000
   10        0.857355   1.000000
   11        0.907977   1.000000
   12        1.884936   1.000000
   13        2.148894   1.000000
   14        4.288375   0.000000
   15        5.025006   0.000000
   16        5.502405   0.000000
   17        5.986605   0.000000
   18        8.103297   0.000000
   19        8.387937   0.000000
   20        8.428972   0.000000
 
  0.0000000E+00  0.1363636E+00  0.5000000E+00  0.2777778E-01
    1      -19.290697   1.000000
    2      -19.282387   1.000000
    3      -19.281152   1.000000
    4      -19.260583   1.000000
    5      -19.245562   1.000000
    6       -8.461303   1.000000
    7       -8.363940   1.000000
    8       -1.804210   1.000000
    9       -1.640130   1.000000
   10        0.862812   1.000000
   11        0.941102   1.000000
   12        1.710602   1.000000
   13        2.194969   1.000000
   14        4.377627   0.000000
   15        5.340547   0.000000
   16        5.393577   0.000000
   17        6.228128   0.000000
   18        7.865104   0.000000
   19        8.220547   0.000000
   20        8.328194   0.000000
 
  0.0000000E+00  0.1818182E+00  0.5000000E+00  0.2777778E-01
    1      -19.289681   1.000000
    2      -19.282790   1.000000
    3      -19.281055   1.000000
    4      -19.259932   1.000000
    5      -19.246104   1.000000
    6       -8.404215   1.000000
    7       -8.302302   1.000000
    8       -2.065935   1.000000
    9       -1.816043   1.000000
   10        0.904351   1.000000
   11        0.984775   1.000000
   12        1.576410   1.000000
   13        2.256100   1.000000
   14        4.357931   0.000000
   15        5.166575   0.000000
   16        5.770474   0.000000
   17        6.444204   0.000000
   18        7.786079   0.000000
   19        8.015329   0.000000
   20        8.452299   0.000000
 
  0.0000000E+00  0.2272727E+00  0.5000000E+00  0.2777778E-01
    1      -19.289244   1.000000
    2      -19.282659   1.000000
    3      -19.280944   1.000000
    4      -19.259099   1.000000
    5      -19.246752   1.000000
    6       -8.335967   1.000000
    7       -8.228603   1.000000
    8       -2.351611   1.000000
    9       -2.031184   1.000000
   10        0.986648   1.000000
   11        1.036231   1.000000
   12        1.507307   1.000000
   13        2.328742   1.000000
   14        4.234386   0.000000
   15        4.875306   0.000000
   16        6.221205   0.000000
   17        6.538517   0.000000
   18        7.793368   0.000000
   19        7.911388   0.000000
   20        8.253999   0.000000
 
  0.0000000E+00  0.2727273E+00  0.5000000E+00  0.2777778E-01
    1      -19.289598   1.000000
    2      -19.281852   1.000000
    3      -19.280827   1.000000
    4      -19.258103   1.000000
    5      -19.247413   1.000000
    6       -8.260804   1.000000
    7       -8.147467   1.000000
    8       -2.636655   1.000000
    9       -2.267046   1.000000
   10        1.091899   1.000000
   11        1.107360   1.000000
   12        1.506192   1.000000
   13        2.408154   1.000000
   14        4.030860   0.000000
   15        4.542920   0.000000
   16        6.546389   0.000000
   17        6.643594   0.000000
   18        7.574401   0.000000
   19        8.025649   0.000000
   20        8.225069   0.000000
 
  0.0000000E+00  0.3181818E+00  0.5000000E+00  0.2777778E-01
    1      -19.290397   1.000000
    2      -19.280731   1.000000
    3      -19.280718   1.000000
    4      -19.257002   1.000000
    5      -19.248037   1.000000
    6       -8.184232   1.000000
    7       -8.064842   1.000000
    8       -2.900373   1.000000
    9       -2.501105   1.000000
   10        1.147460   1.000000
   11        1.260729   1.000000
   12        1.563791   1.000000
   13        2.488355   1.000000
   14        3.775851   0.000000
   15        4.198687   0.000000
   16        6.592066   0.000000
   17        6.935169   0.000000
   18        7.375422   0.000000
   19        7.801819   0.000000
   20        8.683254   0.000000
 
  0.0000000E+00  0.3636364E+00  0.5000000E+00  0.2777778E-01
    1      -19.291305   1.000000
    2      -19.280632   1.000000
    3      -19.279686   1.000000
    4      -19.255930   1.000000
    5      -19.248610   1.000000
    6       -8.112956   1.000000
    7       -7.987969   1.000000
    8       -3.125605   1.000000
    9       -2.711014   1.000000
   10        1.198068   1.000000
   11        1.437699   1.000000
   12        1.664698   1.000000
   13        2.562333   1.000000
   14        3.499193   0.000000
   15        3.869069   0.000000
   16        6.643315   0.000000
   17        7.154230   0.000000
   18        7.210077   0.000000
   19        7.600507   0.000000
   20        9.150506   0.000000
 
  0.0000000E+00  0.4090909E+00  0.5000000E+00  0.2777778E-01
    1      -19.292059   1.000000
    2      -19.280564   1.000000
    3      -19.278876   1.000000
    4      -19.254999   1.000000
    5      -19.249039   1.000000
    6       -8.054404   1.000000
    7       -7.924888   1.000000
    8       -3.298111   1.000000
    9       -2.877087   1.000000
   10        1.238802   1.000000
   11        1.621888   1.000000
   12        1.787720   1.000000
   13        2.622576   1.000000
   14        3.232103   0.003710
   15        3.581924   0.000000
   16        6.699928   0.000000
   17        7.088074   0.000000
   18        7.311924   0.000000
   19        7.438997   0.000000
   20        9.389798   0.000000
 
  0.0000000E+00  0.4545455E+00  0.5000000E+00  0.2777778E-01
    1      -19.292564   1.000000
    2      -19.280519   1.000000
    3      -19.278385   1.000000
    4      -19.254389   1.000000
    5      -19.249310   1.000000
    6       -8.015685   1.000000
    7       -7.883219   1.000000
    8       -3.406625   1.000000
    9       -2.983638   1.000000
   10        1.265297   1.000000
   11        1.778150   1.000000
   12        1.900475   1.000000
   13        2.662111   1.000000
   14        3.017813   0.999642
   15        3.374513   0.000000
   16        6.744603   0.000000
   17        7.014478   0.000000
   18        7.333335   0.000000
   19        7.411731   0.000000
   20        9.412823   0.000000
 
  0.0000000E+00  0.5000000E+00  0.5000000E+00  0.2777778E-01
    1      -19.292744   1.000000
    2      -19.280509   1.000000
    3      -19.278231   1.000000
    4      -19.254182   1.000000
    5      -19.249429   1.000000
    6       -8.002109   1.000000
    7       -7.868614   1.000000
    8       -3.443675   1.000000
    9       -3.020359   1.000000
   10        1.274496   1.000000
   11        1.843559   1.000000
   12        1.951052   1.000000
   13        2.675905   1.000000
   14        2.928812   1.000000
   15        3.295933   0.000004
   16        6.761631   0.000000
   17        6.990110   0.000000
   18        7.296361   0.000000
   19        7.446509   0.000000
   20        9.402444   0.000000
