       N       E                     dE             d eps       ncg     rms          rms(c)
DAV:   1    -0.808642377126E+01   -0.80864E+01   -0.19198E+02  1908   0.743E+01
DAV:   2    -0.986289963802E+01   -0.17765E+01   -0.17538E+01  1616   0.205E+01
DAV:   3    -0.990388542911E+01   -0.40986E-01   -0.40973E-01  2116   0.405E+00
DAV:   4    -0.990471126845E+01   -0.82584E-03   -0.82574E-03  1712   0.434E-01
DAV:   5    -0.990474183970E+01   -0.30571E-04   -0.30571E-04  1776   0.715E-02
DAV:   6    -0.990474211569E+01   -0.27599E-06   -0.27611E-06  1080   0.997E-03
   1 F= -.99047421E+01 E0= -.99028870E+01  d E =-.371014E-02
