 vasp.5.4.4.18Apr17-6-g9f103f2a35 (build Dec 22 2021 20:00:30) complex          
  
 executed on             LinuxIFC date 2019.05.21  00:51:46
 running on   32 total cores
 distrk:  each k-point on   32 cores,    1 groups
 distr:  one band on NCORES_PER_BAND=   8 cores,    4 groups


--------------------------------------------------------------------------------------------------------


 INCAR:
 POTCAR:    PAW_PBE Ga 08Apr2002                  
 POTCAR:    PAW_PBE Bi_d 06Sep2000                
 POTCAR:    PAW_PBE As 22Sep2009                  
 POTCAR:    PAW_PBE Ga 08Apr2002                  
   VRHFIN =Ga: s2p1                                                             
   LEXCH  = PE                                                                  
   EATOM  =    58.8688 eV,    4.3267 Ry                                         
                                                                                
   TITEL  = PAW_PBE Ga 08Apr2002                                                
   LULTRA =        F    use ultrasoft PP ?                                      
   IUNSCR =        1    unscreen: 0-lin 1-nonlin 2-no                           
   RPACOR =    2.170    partial core radius                                     
   POMASS =   69.723; ZVAL   =    3.000    mass and valenz                      
   RCORE  =    2.600    outmost cutoff radius                                   
   RWIGS  =    2.650; RWIGS  =    1.402    wigner-seitz radius (au A)           
   ENMAX  =  134.678; ENMIN  =  101.009 eV                                      
   ICORE  =        3    local potential                                         
   LCOR   =        T    correct aug charges                                     
   LPAW   =        T    paw PP                                                  
   EAUG   =  320.264                                                            
   DEXC   =    0.000                                                            
   RMAX   =    2.658    core radius for proj-oper                               
   RAUG   =    1.300    factor for augmentation sphere                          
   RDEP   =    2.684    radius for radial grids                                 
   RDEPT  =    2.308    core radius for aug-charge                              
                                                                                
   Atomic configuration                                                         
   10 entries                                                                   
     n  l   j            E        occ.                                          
     1  0  0.50    -10228.7830   2.0000                                         
     2  0  0.50     -1262.1604   2.0000                                         
     2  1  1.50     -1098.6333   6.0000                                         
     3  0  0.50      -148.1110   2.0000                                         
     3  1  1.50       -98.8436   6.0000                                         
     3  2  2.50       -19.1549  10.0000                                         
     4  0  0.50        -8.9483   2.0000                                         
     4  1  0.50        -2.5791   1.0000                                         
     4  2  1.50         5.4423   0.0000                                         
     4  3  2.50        -2.7416   0.0000                                         
   Description                                                                  
     l       E           TYP  RCUT    TYP  RCUT                                 
     0     -8.9483097     23  2.600                                             
     0     -5.8232215     23  2.600                                             
     1     -2.5790793     23  2.600                                             
     1      5.2230115     23  2.600                                             
     2      1.3605826     23  2.600                                             
     3     -1.3605826      7  2.600                                             
  local pseudopotential read in
  partial core-charges read in
  partial kinetic energy density read in
  atomic valenz-charges read in
  non local Contribution for L=           0  read in
    real space projection operators read in
  non local Contribution for L=           0  read in
    real space projection operators read in
  non local Contribution for L=           1  read in
    real space projection operators read in
  non local Contribution for L=           1  read in
    real space projection operators read in
  non local Contribution for L=           2  read in
    real space projection operators read in
    PAW grid and wavefunctions read in
 
   number of l-projection  operators is LMAX  =           5
   number of lm-projection operators is LMMAX =          13
 
 POTCAR:    PAW_PBE Bi_d 06Sep2000                
   VRHFIN =Bi:                                                                  
   LEXCH  = PE                                                                  
   EATOM  =  1959.2045 eV,  143.9975 Ry                                         
                                                                                
   TITEL  = PAW_PBE Bi_d 06Sep2000                                              
   LULTRA =        F    use ultrasoft PP ?                                      
   IUNSCR =        1    unscreen: 0-lin 1-nonlin 2-no                           
   RPACOR =    2.200    partial core radius                                     
   POMASS =  208.980; ZVAL   =   15.000    mass and valenz                      
   RCORE  =    2.500    outmost cutoff radius                                   
   RWIGS  =    3.090; RWIGS  =    1.635    wigner-seitz radius (au A)           
   ENMAX  =  242.839; ENMIN  =  182.129 eV                                      
   ICORE  =        3    local potential                                         
   LCOR   =        T    correct aug charges                                     
   LPAW   =        T    paw PP                                                  
   EAUG   =  442.899                                                            
   DEXC   =    0.000                                                            
   RMAX   =    2.551    core radius for proj-oper                               
   RAUG   =    1.300    factor for augmentation sphere                          
   RDEP   =    2.650    radius for radial grids                                 
   RDEPT  =    2.039    core radius for aug-charge                              
                                                                                
   Atomic configuration                                                         
   16 entries                                                                   
     n  l   j            E        occ.                                          
     1  0  0.50    -90639.6581   2.0000                                         
     2  0  0.50    -16282.4666   2.0000                                         
     2  1  1.50    -13922.8286   6.0000                                         
     3  0  0.50     -3930.4763   2.0000                                         
     3  1  1.50     -3256.7013   6.0000                                         
     3  2  2.50     -2581.6168  10.0000                                         
     4  0  0.50      -902.2614   2.0000                                         
     4  1  1.50      -681.5915   6.0000                                         
     4  2  2.50      -429.8249  10.0000                                         
     4  3  3.50      -152.6004  14.0000                                         
     5  0  0.50      -157.7156   2.0000                                         
     5  1  1.50       -95.8054   6.0000                                         
     5  2  2.50       -27.0806  10.0000                                         
     6  0  0.50       -14.4732   2.0000                                         
     6  1  1.50        -4.5702   3.0000                                         
     5  3  2.50        -2.7212   0.0000                                         
   Description                                                                  
     l       E           TYP  RCUT    TYP  RCUT                                 
     2    -27.0805982     23  2.500                                             
     2     -1.3605826     23  2.500                                             
     0    -14.4732271     23  2.500                                             
     0      6.8029130     23  2.500                                             
     1     -4.5701651     23  2.500                                             
     1     13.6058260     23  2.500                                             
     3     -1.3605826      7  2.500                                             
  local pseudopotential read in
  partial core-charges read in
  partial kinetic energy density read in
  atomic valenz-charges read in
  non local Contribution for L=           2  read in
    real space projection operators read in
  non local Contribution for L=           2  read in
    real space projection operators read in
  non local Contribution for L=           0  read in
    real space projection operators read in
  non local Contribution for L=           0  read in
    real space projection operators read in
  non local Contribution for L=           1  read in
    real space projection operators read in
  non local Contribution for L=           1  read in
    real space projection operators read in
    PAW grid and wavefunctions read in
 
   number of l-projection  operators is LMAX  =           6
   number of lm-projection operators is LMMAX =          18
 
 POTCAR:    PAW_PBE As 22Sep2009                  
   VRHFIN =As: s2p3                                                             
   LEXCH  = PE                                                                  
   EATOM  =   170.1867 eV,   12.5084 Ry                                         
                                                                                
   TITEL  = PAW_PBE As 22Sep2009                                                
   LULTRA =        F    use ultrasoft PP ?                                      
   IUNSCR =        1    unscreen: 0-lin 1-nonlin 2-no                           
   RPACOR =    1.900    partial core radius                                     
   POMASS =   74.922; ZVAL   =    5.000    mass and valenz                      
   RCORE  =    2.100    outmost cutoff radius                                   
   RWIGS  =    2.300; RWIGS  =    1.217    wigner-seitz radius (au A)           
   ENMAX  =  208.702; ENMIN  =  156.526 eV                                      
   ICORE  =        3    local potential                                         
   LCOR   =        T    correct aug charges                                     
   LPAW   =        T    paw PP                                                  
   EAUG   =  462.758                                                            
   DEXC   =    0.000                                                            
   RMAX   =    2.144    core radius for proj-oper                               
   RAUG   =    1.300    factor for augmentation sphere                          
   RDEP   =    2.140    radius for radial grids                                 
   RDEPT  =    1.956    core radius for aug-charge                              
                                                                                
   Atomic configuration                                                         
   10 entries                                                                   
     n  l   j            E        occ.                                          
     1  0  0.50    -11718.0418   2.0000                                         
     2  0  0.50     -1486.5454   2.0000                                         
     2  1  1.50     -1303.3889   6.0000                                         
     3  0  0.50      -190.2849   2.0000                                         
     3  1  1.50      -133.6555   6.0000                                         
     3  2  2.50       -40.6443  10.0000                                         
     4  0  0.50       -14.4936   2.0000                                         
     4  1  0.50        -5.1947   3.0000                                         
     4  2  1.50        -5.4423   0.0000                                         
     4  3  2.50        -5.4423   0.0000                                         
   Description                                                                  
     l       E           TYP  RCUT    TYP  RCUT                                 
     0    -14.4935570     23  2.100                                             
     0    -11.9212055     23  2.100                                             
     1     -5.1947127     23  2.100                                             
     1     27.2116520     23  2.100                                             
     2     -5.4423304     23  2.100                                             
     3     -1.3605826      7  2.100                                             
  local pseudopotential read in
  partial core-charges read in
  partial kinetic energy density read in
  atomic valenz-charges read in
  non local Contribution for L=           0  read in
    real space projection operators read in
  non local Contribution for L=           0  read in
    real space projection operators read in
  non local Contribution for L=           1  read in
    real space projection operators read in
  non local Contribution for L=           1  read in
    real space projection operators read in
  non local Contribution for L=           2  read in
    real space projection operators read in
    PAW grid and wavefunctions read in
 
   number of l-projection  operators is LMAX  =           5
   number of lm-projection operators is LMMAX =          13
 
  PAW_PBE Ga 08Apr2002                  :
 energy of atom  1       EATOM=  -58.8688
 kinetic energy error for atom=    0.0000 (will be added to EATOM!!)
  PAW_PBE Bi_d 06Sep2000                :
 energy of atom  2       EATOM=-1959.2045
 kinetic energy error for atom=    0.0049 (will be added to EATOM!!)
  PAW_PBE As 22Sep2009                  :
 energy of atom  3       EATOM= -170.1867
 kinetic energy error for atom=    0.0005 (will be added to EATOM!!)
 
 
 POSCAR: Ga2 Bi1 As1                             
  positions in direct lattice
  No initial velocities read in
 exchange correlation table for  LEXCH =        8
   RHO(1)=    0.500       N(1)  =     2000
   RHO(2)=  100.500       N(2)  =     4000
 


--------------------------------------------------------------------------------------------------------


 ion  position               nearest neighbor table
   1  0.500  0.000  0.726-   4 2.56   4 2.56   3 2.73   3 2.73
   2  0.000  0.500  0.274-   4 2.56   4 2.56   3 2.73   3 2.73
   3  0.000  0.000  0.000-   1 2.73   1 2.73   2 2.73   2 2.73
   4  0.500  0.500  0.500-   2 2.56   2 2.56   1 2.56   1 2.56
 
  LATTYP: Found a simple tetragonal cell.
 ALAT       =     4.3001408577
 C/A-ratio  =     1.4292232167
  
  Lattice vectors:
  
 A1 = (   4.3001408577,   0.0000000000,   0.0000000000)
 A2 = (   0.0000000000,   4.3001408577,   0.0000000000)
 A3 = (   0.0000000000,   0.0000000000,   6.1458611488)


Analysis of symmetry for initial positions (statically):
=====================================================================
 Subroutine PRICEL returns:
 Original cell was already a primitive cell.
 

 Routine SETGRP: Setting up the symmetry group for a 
 simple tetragonal supercell.


 Subroutine GETGRP returns: Found  8 space group operations
 (whereof  8 operations were pure point group operations)
 out of a pool of 16 trial point group operations.


The static configuration has the point symmetry D_2d.


Analysis of symmetry for dynamics (positions and initial velocities):
=====================================================================
 Subroutine PRICEL returns:
 Original cell was already a primitive cell.
 

 Routine SETGRP: Setting up the symmetry group for a 
 simple tetragonal supercell.


 Subroutine GETGRP returns: Found  8 space group operations
 (whereof  8 operations were pure point group operations)
 out of a pool of 16 trial point group operations.


The dynamic configuration has the point symmetry D_2d.


 Subroutine INISYM returns: Found  8 space group operations
 (whereof  8 operations are pure point group operations),
 and found     1 'primitive' translations

 
 
 KPOINTS: K-points alon1g high symmetry lines     
  interpolating k-points between supplied coordinates
  k-points in reciprocal lattice
Space group operators:
 irot       det(A)        alpha          n_x          n_y          n_z        tau_x        tau_y        tau_z
    1     1.000000     0.000001     1.000000     0.000000     0.000000     0.000000     0.000000     0.000000
    2    -1.000000    90.000000     0.000000     0.000000    -1.000000     0.000000     0.000000     0.000000
    3     1.000000   180.000000     0.000000     0.000000     1.000000     0.000000     0.000000     0.000000
    4    -1.000000    90.000000     0.000000     0.000000     1.000000     0.000000     0.000000     0.000000
    5    -1.000000   180.000000     0.000000     1.000000     0.000000     0.000000     0.000000     0.000000
    6     1.000000   180.000000     0.707107     0.707107     0.000000     0.000000     0.000000     0.000000
    7    -1.000000   180.000000     1.000000     0.000000     0.000000     0.000000     0.000000     0.000000
    8     1.000000   180.000000     0.707107    -0.707107     0.000000     0.000000     0.000000     0.000000


--------------------------------------------------------------------------------------------------------




 Dimension of arrays:
   k-points           NKPTS =     36   k-points in BZ     NKDIM =     36   number of bands    NBANDS=     20
   number of dos      NEDOS =    301   number of ions     NIONS =      4
   non local maximal  LDIM  =      6   non local SUM 2l+1 LMDIM =     18
   total plane-waves  NPLWV =  49152
   max r-space proj   IRMAX =      1   max aug-charges    IRDMAX=  31281
   dimension x,y,z NGX =    32 NGY =   32 NGZ =   48
   dimension x,y,z NGXF=    64 NGYF=   64 NGZF=   96
   support grid    NGXF=    64 NGYF=   64 NGZF=   96
   ions per type =               2   1   1
   NGX,Y,Z   is equivalent  to a cutoff of  12.37, 12.37, 12.98 a.u.
   NGXF,Y,Z  is equivalent  to a cutoff of  24.74, 24.74, 25.97 a.u.

 SYSTEM =  Ga2BiAs                                 
 POSCAR =  Ga2 Bi1 As1                             

 Startparameter for this run:
   NWRITE =      2    write-flag & timer
   PREC   = accura    normal or accurate (medium, high low for compatibility)
   ISTART =      1    job   : 0-new  1-cont  2-samecut
   ICHARG =     11    charge: 1-file 2-atom 10-const
   ISPIN  =      1    spin polarized calculation?
   LNONCOLLINEAR =      F non collinear calculations
   LSORBIT =      F    spin-orbit coupling
   INIWAV =      1    electr: 0-lowe 1-rand  2-diag
   LASPH  =      F    aspherical Exc in radial PAW
   METAGGA=      F    non-selfconsistent MetaGGA calc.

 Electronic Relaxation 1
   ENCUT  =  500.0 eV  36.75 Ry    6.06 a.u.   7.84  7.84 11.21*2*pi/ulx,y,z
   ENINI  =  500.0     initial cutoff
   ENAUG  =  462.8 eV  augmentation charge cutoff
   NELM   =     60;   NELMIN=  2; NELMDL=  0     # of ELM steps 
   EDIFF  = 0.1E-04   stopping-criterion for ELM
   LREAL  =      F    real-space projection
   NLSPLINE    = F    spline interpolate recip. space projectors
   LCOMPAT=      F    compatible to vasp.4.4
   GGA_COMPAT  = T    GGA compatible to vasp.4.4-vasp.4.6
   LMAXPAW     = -100 max onsite density
   LMAXMIX     =    2 max onsite mixed and CHGCAR
   VOSKOWN=      0    Vosko Wilk Nusair interpolation
   ROPT   =    0.00000   0.00000   0.00000
 Ionic relaxation
   EDIFFG = -.1E-01   stopping-criterion for IOM
   NSW    =      0    number of steps for IOM
   NBLOCK =      1;   KBLOCK =      1    inner block; outer block 
   IBRION =     -1    ionic relax: 0-MD 1-quasi-New 2-CG
   NFREE  =      0    steps in history (QN), initial steepest desc. (CG)
   ISIF   =      2    stress and relaxation
   IWAVPR =     10    prediction:  0-non 1-charg 2-wave 3-comb
   ISYM   =      2    0-nonsym 1-usesym 2-fastsym
   LCORR  =      T    Harris-Foulkes like correction to forces

   POTIM  = 0.5000    time-step for ionic-motion
   TEIN   =    0.0    initial temperature
   TEBEG  =    0.0;   TEEND  =   0.0 temperature during run
   SMASS  =  -3.00    Nose mass-parameter (am)
   estimated Nose-frequenzy (Omega)   =  0.10E-29 period in steps =****** mass=  -0.423E-27a.u.
   SCALEE = 1.0000    scale energy and forces
   NPACO  =    256;   APACO  = 16.0  distance and # of slots for P.C.
   PSTRESS=    0.0 pullay stress

  Mass of Ions in am
   POMASS =  69.72208.98 74.92
  Ionic Valenz
   ZVAL   =   3.00 15.00  5.00
  Atomic Wigner-Seitz radii
   RWIGS  =  -1.00 -1.00 -1.00
  virtual crystal weights 
   VCA    =   1.00  1.00  1.00
   NELECT =      26.0000    total number of electrons
   NUPDOWN=      -1.0000    fix difference up-down

 DOS related values:
   EMIN   =  10.00;   EMAX   =-10.00  energy-range for DOS
   EFERMI =   0.00
   ISMEAR =     0;   SIGMA  =   0.05  broadening in eV -4-tet -1-fermi 0-gaus

 Electronic relaxation 2 (details)
   IALGO  =     38    algorithm
   LDIAG  =      T    sub-space diagonalisation (order eigenvalues)
   LSUBROT=      F    optimize rotation matrix (better conditioning)
   TURBO    =      0    0=normal 1=particle mesh
   IRESTART =      0    0=no restart 2=restart with 2 vectors
   NREBOOT  =      0    no. of reboots
   NMIN     =      0    reboot dimension
   EREF     =   0.00    reference energy to select bands
   IMIX   =      4    mixing-type and parameters
     AMIX     =   0.40;   BMIX     =  1.00
     AMIX_MAG =   1.60;   BMIX_MAG =  1.00
     AMIN     =   0.10
     WC   =   100.;   INIMIX=   1;  MIXPRE=   1;  MAXMIX= -45

 Intra band minimization:
   WEIMIN = 0.0000     energy-eigenvalue tresh-hold
   EBREAK =  0.13E-06  absolut break condition
   DEPER  =   0.30     relativ break condition  

   TIME   =   0.40     timestep for ELM

  volume/ion in A,a.u.               =      28.41       191.73
  Fermi-wavevector in a.u.,A,eV,Ry     =   1.001267  1.892120 13.640326  1.002536
  Thomas-Fermi vector in A             =   2.133678
 
 Write flags
   LWAVE        =      T    write WAVECAR
   LDOWNSAMPLE  =      F    k-point downsampling of WAVECAR
   LCHARG       =      F    write CHGCAR
   LVTOT        =      F    write LOCPOT, total local potential
   LVHAR        =      F    write LOCPOT, Hartree potential only
   LELF         =      F    write electronic localiz. function (ELF)
   LORBIT       =     11    0 simple, 1 ext, 2 COOP (PROOUT), +10 PAW based schemes


 Dipole corrections
   LMONO  =      F    monopole corrections only (constant potential shift)
   LDIPOL =      F    correct potential (dipole corrections)
   IDIPOL =      0    1-x, 2-y, 3-z, 4-all directions 
   EPSILON=  1.0000000 bulk dielectric constant

 Exchange correlation treatment:
   GGA     =    --    GGA type
   LEXCH   =     8    internal setting for exchange type
   VOSKOWN=      0    Vosko Wilk Nusair interpolation
   LHFCALC =     F    Hartree Fock is set to
   LHFONE  =     F    Hartree Fock one center treatment
   AEXX    =    0.0000 exact exchange contribution

 Linear response parameters
   LEPSILON=     F    determine dielectric tensor
   LRPA    =     F    only Hartree local field effects (RPA)
   LNABLA  =     F    use nabla operator in PAW spheres
   LVEL    =     F    velocity operator in full k-point grid
   LINTERFAST=   F  fast interpolation
   KINTER  =     0    interpolate to denser k-point grid
   CSHIFT  =0.1000    complex shift for real part using Kramers Kronig
   OMEGAMAX=  -1.0    maximum frequency
   DEG_THRESHOLD= 0.2000000E-02 threshold for treating states as degnerate
   RTIME   =   -0.100 relaxation time in fs
  (WPLASMAI=    0.000 imaginary part of plasma frequency in eV, 0.658/RTIME)
   DFIELD  = 0.0000000 0.0000000 0.0000000 field for delta impulse in time
 
 Orbital magnetization related:
   ORBITALMAG=     F  switch on orbital magnetization
   LCHIMAG   =     F  perturbation theory with respect to B field
   DQ        =  0.001000  dq finite difference perturbation B field
   LLRAUG    =     F  two centre corrections for induced B field



--------------------------------------------------------------------------------------------------------


 Static calculation
 charge density and potential remain constant during run
 non-spin polarized calculation
 Variant of blocked Davidson
 Davidson routine will perform the subspace rotation
 perform sub-space diagonalisation
    after iterative eigenvector-optimisation
 no mixing
 using additional bands            7
 reciprocal scheme for non local part
 use partial core corrections
 calculate Harris-corrections to forces 
   (improved forces if not selfconsistent)
 use gradient corrections 
 WARNING: stress and forces are not correct
  (second derivative of E(xc) not defined)
 use of overlap-Matrix (Vanderbilt PP)
 Gauss-broadening in eV      SIGMA  =   0.05


--------------------------------------------------------------------------------------------------------


  energy-cutoff  :      500.00
  volume of cell :      113.64
      direct lattice vectors                 reciprocal lattice vectors
     4.300140858  0.000000000  0.000000000     0.232550522  0.000000000  0.000000000
     0.000000000  4.300140858  0.000000000     0.000000000  0.232550522  0.000000000
     0.000000000  0.000000000  6.145861149     0.000000000  0.000000000  0.162711128

  length of vectors
     4.300140858  4.300140858  6.145861149     0.232550522  0.232550522  0.162711128


 
 old parameters found on file WAVECAR:
  energy-cutoff  :      500.00
  volume of cell :      113.64
      direct lattice vectors                 reciprocal lattice vectors
     4.300140858  0.000000000  0.000000000     0.232550522  0.000000000  0.000000000
     0.000000000  4.300140858  0.000000000     0.000000000  0.232550522  0.000000000
     0.000000000  0.000000000  6.145861149     0.000000000  0.000000000  0.162711128

  length of vectors

 
 k-points in units of 2pi/SCALE and weight: K-points alon1g high symmetry lines     
   0.11627526  0.11627526  0.00000000       0.028
   0.10570478  0.10570478  0.00000000       0.028
   0.09513430  0.09513430  0.00000000       0.028
   0.08456383  0.08456383  0.00000000       0.028
   0.07399335  0.07399335  0.00000000       0.028
   0.06342287  0.06342287  0.00000000       0.028
   0.05285239  0.05285239  0.00000000       0.028
   0.04228191  0.04228191  0.00000000       0.028
   0.03171143  0.03171143  0.00000000       0.028
   0.02114096  0.02114096  0.00000000       0.028
   0.01057048  0.01057048  0.00000000       0.028
   0.00000000  0.00000000  0.00000000       0.028
   0.00000000  0.00000000  0.00000000       0.028
   0.00000000  0.00000000  0.00739596       0.028
   0.00000000  0.00000000  0.01479192       0.028
   0.00000000  0.00000000  0.02218788       0.028
   0.00000000  0.00000000  0.02958384       0.028
   0.00000000  0.00000000  0.03697980       0.028
   0.00000000  0.00000000  0.04437576       0.028
   0.00000000  0.00000000  0.05177172       0.028
   0.00000000  0.00000000  0.05916768       0.028
   0.00000000  0.00000000  0.06656364       0.028
   0.00000000  0.00000000  0.07395960       0.028
   0.00000000  0.00000000  0.08135556       0.028
   0.00000000  0.00000000  0.08135556       0.028
   0.00000000  0.01057048  0.08135556       0.028
   0.00000000  0.02114096  0.08135556       0.028
   0.00000000  0.03171143  0.08135556       0.028
   0.00000000  0.04228191  0.08135556       0.028
   0.00000000  0.05285239  0.08135556       0.028
   0.00000000  0.06342287  0.08135556       0.028
   0.00000000  0.07399335  0.08135556       0.028
   0.00000000  0.08456383  0.08135556       0.028
   0.00000000  0.09513430  0.08135556       0.028
   0.00000000  0.10570478  0.08135556       0.028
   0.00000000  0.11627526  0.08135556       0.028
 
 k-points in reciprocal lattice and weights: K-points alon1g high symmetry lines     
   0.50000000  0.50000000  0.00000000       0.028
   0.45454545  0.45454545  0.00000000       0.028
   0.40909091  0.40909091  0.00000000       0.028
   0.36363636  0.36363636  0.00000000       0.028
   0.31818182  0.31818182  0.00000000       0.028
   0.27272727  0.27272727  0.00000000       0.028
   0.22727273  0.22727273  0.00000000       0.028
   0.18181818  0.18181818  0.00000000       0.028
   0.13636364  0.13636364  0.00000000       0.028
   0.09090909  0.09090909  0.00000000       0.028
   0.04545455  0.04545455  0.00000000       0.028
   0.00000000  0.00000000  0.00000000       0.028
   0.00000000  0.00000000  0.00000000       0.028
   0.00000000  0.00000000  0.04545455       0.028
   0.00000000  0.00000000  0.09090909       0.028
   0.00000000  0.00000000  0.13636364       0.028
   0.00000000  0.00000000  0.18181818       0.028
   0.00000000  0.00000000  0.22727273       0.028
   0.00000000  0.00000000  0.27272727       0.028
   0.00000000  0.00000000  0.31818182       0.028
   0.00000000  0.00000000  0.36363636       0.028
   0.00000000  0.00000000  0.40909091       0.028
   0.00000000  0.00000000  0.45454545       0.028
   0.00000000  0.00000000  0.50000000       0.028
   0.00000000  0.00000000  0.50000000       0.028
   0.00000000  0.04545455  0.50000000       0.028
   0.00000000  0.09090909  0.50000000       0.028
   0.00000000  0.13636364  0.50000000       0.028
   0.00000000  0.18181818  0.50000000       0.028
   0.00000000  0.22727273  0.50000000       0.028
   0.00000000  0.27272727  0.50000000       0.028
   0.00000000  0.31818182  0.50000000       0.028
   0.00000000  0.36363636  0.50000000       0.028
   0.00000000  0.40909091  0.50000000       0.028
   0.00000000  0.45454545  0.50000000       0.028
   0.00000000  0.50000000  0.50000000       0.028
 
 position of ions in fractional coordinates (direct lattice) 
   0.50000000  0.00000000  0.72573602
   0.00000000  0.50000000  0.27426400
   0.00000000  0.00000000  0.00000000
   0.50000000  0.50000000  0.50000000
 
 position of ions in cartesian coordinates  (Angst):
   2.15007043  0.00000000  4.46027279
   0.00000000  2.15007043  1.68558848
   0.00000000  0.00000000  0.00000000
   2.15007043  2.15007043  3.07293057
 


--------------------------------------------------------------------------------------------------------


 k-point  1 :   0.5000 0.5000 0.0000  plane waves:    2880
 k-point  2 :   0.4545 0.4545 0.0000  plane waves:    2873
 k-point  3 :   0.4091 0.4091 0.0000  plane waves:    2881
 k-point  4 :   0.3636 0.3636 0.0000  plane waves:    2871
 k-point  5 :   0.3182 0.3182 0.0000  plane waves:    2889
 k-point  6 :   0.2727 0.2727 0.0000  plane waves:    2889
 k-point  7 :   0.2273 0.2273 0.0000  plane waves:    2883
 k-point  8 :   0.1818 0.1818 0.0000  plane waves:    2867
 k-point  9 :   0.1364 0.1364 0.0000  plane waves:    2879
 k-point 10 :   0.0909 0.0909 0.0000  plane waves:    2877
 k-point 11 :   0.0455 0.0455 0.0000  plane waves:    2875
 k-point 12 :   0.0000 0.0000 0.0000  plane waves:    2879
 k-point 13 :   0.0000 0.0000 0.0000  plane waves:    2879
 k-point 14 :   0.0000 0.0000 0.0455  plane waves:    2883
 k-point 15 :   0.0000 0.0000 0.0909  plane waves:    2879
 k-point 16 :   0.0000 0.0000 0.1364  plane waves:    2875
 k-point 17 :   0.0000 0.0000 0.1818  plane waves:    2875
 k-point 18 :   0.0000 0.0000 0.2273  plane waves:    2870
 k-point 19 :   0.0000 0.0000 0.2727  plane waves:    2874
 k-point 20 :   0.0000 0.0000 0.3182  plane waves:    2874
 k-point 21 :   0.0000 0.0000 0.3636  plane waves:    2882
 k-point 22 :   0.0000 0.0000 0.4091  plane waves:    2894
 k-point 23 :   0.0000 0.0000 0.4545  plane waves:    2886
 k-point 24 :   0.0000 0.0000 0.5000  plane waves:    2886
 k-point 25 :   0.0000 0.0000 0.5000  plane waves:    2886
 k-point 26 :   0.0000 0.0455 0.5000  plane waves:    2886
 k-point 27 :   0.0000 0.0909 0.5000  plane waves:    2886
 k-point 28 :   0.0000 0.1364 0.5000  plane waves:    2884
 k-point 29 :   0.0000 0.1818 0.5000  plane waves:    2866
 k-point 30 :   0.0000 0.2273 0.5000  plane waves:    2870
 k-point 31 :   0.0000 0.2727 0.5000  plane waves:    2882
 k-point 32 :   0.0000 0.3182 0.5000  plane waves:    2882
 k-point 33 :   0.0000 0.3636 0.5000  plane waves:    2900
 k-point 34 :   0.0000 0.4091 0.5000  plane waves:    2890
 k-point 35 :   0.0000 0.4545 0.5000  plane waves:    2896
 k-point 36 :   0.0000 0.5000 0.5000  plane waves:    2924

 maximum and minimum number of plane-waves per node :       379      341

 maximum number of plane-waves:      2924
 maximum index in each direction: 
   IXMAX=    7   IYMAX=    7   IZMAX=   11
   IXMIN=   -8   IYMIN=   -8   IZMIN=  -11


 parallel 3D FFT for wavefunctions:
    minimum data exchange during FFTs selected (reduces bandwidth)
 parallel 3D FFT for charge:
    minimum data exchange during FFTs selected (reduces bandwidth)


 total amount of memory used by VASP MPI-rank0    38527. kBytes
=======================================================================

   base      :      30000. kBytes
   nonl-proj :       5746. kBytes
   fftplans  :        603. kBytes
   grid      :       1046. kBytes
   one-center:         15. kBytes
   wavefun   :       1117. kBytes
 
     INWAV:  cpu time    0.2312: real time    0.2321
 initial charge density was supplied:
 number of electron      26.0000008 magnetization 
 keeping initial charge density in first step


--------------------------------------------------------------------------------------------------------


 Maximum index for augmentation-charges         1186 (set IRDMAX)


--------------------------------------------------------------------------------------------------------


 First call to EWALD:  gamma=   0.366
 Maximum number of real-space cells 3x 3x 2
 Maximum number of reciprocal cells 2x 2x 3

    FEWALD:  cpu time    0.0018: real time    0.0018


--------------------------------------- Iteration      1(   1)  ---------------------------------------


    POTLOK:  cpu time    0.1833: real time    0.3481
    SETDIJ:  cpu time    0.0110: real time    0.0111
     EDDAV:  cpu time    0.6912: real time    0.6938
       DOS:  cpu time    0.0011: real time    0.0011
    --------------------------------------------
      LOOP:  cpu time    0.8867: real time    1.0541

 eigenvalue-minimisations  :  1908
 total energy-change (2. order) :-0.8086424E+01  (-0.1919832E+02)
 number of electron      26.0000008 magnetization 
 augmentation part       26.0000008 magnetization 

 Free energy of the ion-electron system (eV)
  ---------------------------------------------------
  alpha Z        PSCENC =        64.20128509
  Ewald energy   TEWEN  =     -1439.91766544
  -Hartree energ DENC   =      -753.77007294
  -exchange      EXHF   =         0.00000000
  -V(xc)+E(xc)   XCENC  =        -0.92234579
  PAW double counting   =      2420.17782075    -2324.78632130
  entropy T*S    EENTRO =        -0.00618845
  eigenvalues    EBANDS =      -220.18615711
  atomic energy  EATOM  =      2247.12322143
  Solvation  Ediel_sol  =         0.00000000
  ---------------------------------------------------
  free energy    TOTEN  =        -8.08642377 eV

  energy without entropy =       -8.08023532  energy(sigma->0) =       -8.08332955


--------------------------------------------------------------------------------------------------------




--------------------------------------- Iteration      1(   2)  ---------------------------------------


     EDDAV:  cpu time    0.7273: real time    0.7320
       DOS:  cpu time    0.0011: real time    0.0011
    --------------------------------------------
      LOOP:  cpu time    0.7283: real time    0.7331

 eigenvalue-minimisations  :  1616
 total energy-change (2. order) :-0.1776476E+01  (-0.1753823E+01)
 number of electron      26.0000008 magnetization 
 augmentation part       26.0000008 magnetization 

 Free energy of the ion-electron system (eV)
  ---------------------------------------------------
  alpha Z        PSCENC =        64.20128509
  Ewald energy   TEWEN  =     -1439.91766544
  -Hartree energ DENC   =      -753.77007294
  -exchange      EXHF   =         0.00000000
  -V(xc)+E(xc)   XCENC  =        -0.92234579
  PAW double counting   =      2420.17782075    -2324.78632130
  entropy T*S    EENTRO =        -0.00374675
  eigenvalues    EBANDS =      -221.96507468
  atomic energy  EATOM  =      2247.12322143
  Solvation  Ediel_sol  =         0.00000000
  ---------------------------------------------------
  free energy    TOTEN  =        -9.86289964 eV

  energy without entropy =       -9.85915289  energy(sigma->0) =       -9.86102626


--------------------------------------------------------------------------------------------------------




--------------------------------------- Iteration      1(   3)  ---------------------------------------


     EDDAV:  cpu time    0.7079: real time    0.7113
       DOS:  cpu time    0.0010: real time    0.0010
    --------------------------------------------
      LOOP:  cpu time    0.7089: real time    0.7123

 eigenvalue-minimisations  :  2116
 total energy-change (2. order) :-0.4098579E-01  (-0.4097259E-01)
 number of electron      26.0000008 magnetization 
 augmentation part       26.0000008 magnetization 

 Free energy of the ion-electron system (eV)
  ---------------------------------------------------
  alpha Z        PSCENC =        64.20128509
  Ewald energy   TEWEN  =     -1439.91766544
  -Hartree energ DENC   =      -753.77007294
  -exchange      EXHF   =         0.00000000
  -V(xc)+E(xc)   XCENC  =        -0.92234579
  PAW double counting   =      2420.17782075    -2324.78632130
  entropy T*S    EENTRO =        -0.00371032
  eigenvalues    EBANDS =      -222.00609689
  atomic energy  EATOM  =      2247.12322143
  Solvation  Ediel_sol  =         0.00000000
  ---------------------------------------------------
  free energy    TOTEN  =        -9.90388543 eV

  energy without entropy =       -9.90017511  energy(sigma->0) =       -9.90203027


--------------------------------------------------------------------------------------------------------




--------------------------------------- Iteration      1(   4)  ---------------------------------------


     EDDAV:  cpu time    0.6056: real time    0.6081
       DOS:  cpu time    0.0012: real time    0.0012
    --------------------------------------------
      LOOP:  cpu time    0.6068: real time    0.6092

 eigenvalue-minimisations  :  1712
 total energy-change (2. order) :-0.8258393E-03  (-0.8257427E-03)
 number of electron      26.0000008 magnetization 
 augmentation part       26.0000008 magnetization 

 Free energy of the ion-electron system (eV)
  ---------------------------------------------------
  alpha Z        PSCENC =        64.20128509
  Ewald energy   TEWEN  =     -1439.91766544
  -Hartree energ DENC   =      -753.77007294
  -exchange      EXHF   =         0.00000000
  -V(xc)+E(xc)   XCENC  =        -0.92234579
  PAW double counting   =      2420.17782075    -2324.78632130
  entropy T*S    EENTRO =        -0.00371015
  eigenvalues    EBANDS =      -222.00692291
  atomic energy  EATOM  =      2247.12322143
  Solvation  Ediel_sol  =         0.00000000
  ---------------------------------------------------
  free energy    TOTEN  =        -9.90471127 eV

  energy without entropy =       -9.90100112  energy(sigma->0) =       -9.90285620


--------------------------------------------------------------------------------------------------------




--------------------------------------- Iteration      1(   5)  ---------------------------------------


     EDDAV:  cpu time    0.6139: real time    0.6165
       DOS:  cpu time    0.0011: real time    0.0012
    --------------------------------------------
      LOOP:  cpu time    0.6150: real time    0.6176

 eigenvalue-minimisations  :  1776
 total energy-change (2. order) :-0.3057125E-04  (-0.3057090E-04)
 number of electron      26.0000008 magnetization 
 augmentation part       26.0000008 magnetization 

 Free energy of the ion-electron system (eV)
  ---------------------------------------------------
  alpha Z        PSCENC =        64.20128509
  Ewald energy   TEWEN  =     -1439.91766544
  -Hartree energ DENC   =      -753.77007294
  -exchange      EXHF   =         0.00000000
  -V(xc)+E(xc)   XCENC  =        -0.92234579
  PAW double counting   =      2420.17782075    -2324.78632130
  entropy T*S    EENTRO =        -0.00371014
  eigenvalues    EBANDS =      -222.00695348
  atomic energy  EATOM  =      2247.12322143
  Solvation  Ediel_sol  =         0.00000000
  ---------------------------------------------------
  free energy    TOTEN  =        -9.90474184 eV

  energy without entropy =       -9.90103170  energy(sigma->0) =       -9.90288677


--------------------------------------------------------------------------------------------------------




--------------------------------------- Iteration      1(   6)  ---------------------------------------


     EDDAV:  cpu time    0.4515: real time    0.4532
       DOS:  cpu time    0.0011: real time    0.0011
    --------------------------------------------
      LOOP:  cpu time    0.4526: real time    0.4543

 eigenvalue-minimisations  :  1080
 total energy-change (2. order) :-0.2759857E-06  (-0.2761145E-06)
 number of electron      26.0000008 magnetization 
 augmentation part       26.0000008 magnetization 

 Free energy of the ion-electron system (eV)
  ---------------------------------------------------
  alpha Z        PSCENC =        64.20128509
  Ewald energy   TEWEN  =     -1439.91766544
  -Hartree energ DENC   =      -753.77007294
  -exchange      EXHF   =         0.00000000
  -V(xc)+E(xc)   XCENC  =        -0.92234579
  PAW double counting   =      2420.17782075    -2324.78632130
  entropy T*S    EENTRO =        -0.00371014
  eigenvalues    EBANDS =      -222.00695376
  atomic energy  EATOM  =      2247.12322143
  Solvation  Ediel_sol  =         0.00000000
  ---------------------------------------------------
  free energy    TOTEN  =        -9.90474212 eV

  energy without entropy =       -9.90103197  energy(sigma->0) =       -9.90288704


--------------------------------------------------------------------------------------------------------




 average (electrostatic) potential at core
  the test charge radii are     1.2767  1.0856  1.0621
  (the norm of the test charge is              1.0000)
       1 -14.6572       2 -14.6572       3-107.4214       4 -51.6545
 
 
 
 E-fermi :   3.1374     XC(G=0):  -8.7548     alpha+bet : -8.3023


 k-point     1 :       0.5000    0.5000    0.0000
  band No.  band energies     occupation 
      1     -19.2916      2.00000
      2     -19.2916      2.00000
      3     -19.2566      2.00000
      4     -19.2546      2.00000
      5     -19.2539      2.00000
      6      -7.4994      2.00000
      7      -7.3026      2.00000
      8      -3.5369      2.00000
      9      -3.5369      2.00000
     10       0.3221      2.00000
     11       0.5890      2.00000
     12       0.5890      2.00000
     13       0.8913      2.00000
     14       3.8700      0.00000
     15       4.2281      0.00000
     16       4.2281      0.00000
     17       4.6665      0.00000
     18      10.9485      0.00000
     19      11.0773      0.00000
     20      11.0773      0.00000

 k-point     2 :       0.4545    0.4545    0.0000
  band No.  band energies     occupation 
      1     -19.2915      2.00000
      2     -19.2914      2.00000
      3     -19.2573      2.00000
      4     -19.2544      2.00000
      5     -19.2540      2.00000
      6      -7.5320      2.00000
      7      -7.3303      2.00000
      8      -3.5263      2.00000
      9      -3.4417      2.00000
     10       0.2942      2.00000
     11       0.5412      2.00000
     12       0.6187      2.00000
     13       0.8757      2.00000
     14       3.9455      0.00000
     15       4.2328      0.00000
     16       4.3756      0.00000
     17       4.7923      0.00000
     18      10.6500      0.00000
     19      10.7850      0.00000
     20      11.0376      0.00000

 k-point     3 :       0.4091    0.4091    0.0000
  band No.  band energies     occupation 
      1     -19.2911      2.00000
      2     -19.2908      2.00000
      3     -19.2593      2.00000
      4     -19.2545      2.00000
      5     -19.2538      2.00000
      6      -7.6580      2.00000
      7      -7.3670      2.00000
      8      -3.4972      2.00000
      9      -3.1754      2.00000
     10       0.1907      2.00000
     11       0.4244      2.00000
     12       0.7073      2.00000
     13       0.8878      2.00000
     14       4.0641      0.00000
     15       4.3682      0.00000
     16       4.7775      0.00000
     17       5.1235      0.00000
     18      10.0695      0.00000
     19      10.1088      0.00000
     20      10.7153      0.00000

 k-point     4 :       0.3636    0.3636    0.0000
  band No.  band energies     occupation 
      1     -19.2904      2.00000
      2     -19.2899      2.00000
      3     -19.2624      2.00000
      4     -19.2551      2.00000
      5     -19.2528      2.00000
      6      -7.8696      2.00000
      7      -7.3817      2.00000
      8      -3.4572      2.00000
      9      -2.7798      2.00000
     10       0.0253      2.00000
     11       0.2931      2.00000
     12       0.8534      2.00000
     13       0.9904      2.00000
     14       4.1465      0.00000
     15       4.6742      0.00000
     16       5.3520      0.00000
     17       5.6251      0.00000
     18       9.2955      0.00000
     19       9.3654      0.00000
     20      10.1949      0.00000

 k-point     5 :       0.3182    0.3182    0.0000
  band No.  band energies     occupation 
      1     -19.2896      2.00000
      2     -19.2887      2.00000
      3     -19.2664      2.00000
      4     -19.2560      2.00000
      5     -19.2516      2.00000
      6      -8.1172      2.00000
      7      -7.3873      2.00000
      8      -3.4180      2.00000
      9      -2.2965      2.00000
     10      -0.1333      2.00000
     11       0.1949      2.00000
     12       1.0543      2.00000
     13       1.1775      2.00000
     14       4.2643      0.00000
     15       5.0058      0.00000
     16       6.0083      0.00000
     17       6.2729      0.00000
     18       8.4685      0.00000
     19       8.6380      0.00000
     20       9.5928      0.00000

 k-point     6 :       0.2727    0.2727    0.0000
  band No.  band energies     occupation 
      1     -19.2887      2.00000
      2     -19.2873      2.00000
      3     -19.2708      2.00000
      4     -19.2571      2.00000
      5     -19.2503      2.00000
      6      -8.3665      2.00000
      7      -7.3920      2.00000
      8      -3.3930      2.00000
      9      -1.7593      2.00000
     10      -0.2287      2.00000
     11       0.1623      2.00000
     12       1.3058      2.00000
     13       1.4311      2.00000
     14       4.4331      0.00000
     15       5.2528      0.00000
     16       6.5497      0.00000
     17       6.9959      0.00000
     18       7.7311      0.00000
     19       8.0826      0.00000
     20       8.9713      0.00000

 k-point     7 :       0.2273    0.2273    0.0000
  band No.  band energies     occupation 
      1     -19.2880      2.00000
      2     -19.2858      2.00000
      3     -19.2751      2.00000
      4     -19.2581      2.00000
      5     -19.2489      2.00000
      6      -8.5972      2.00000
      7      -7.3985      2.00000
      8      -3.3916      2.00000
      9      -1.1986      2.00000
     10      -0.2322      2.00000
     11       0.2181      2.00000
     12       1.6008      2.00000
     13       1.7375      2.00000
     14       4.6288      0.00000
     15       5.2963      0.00000
     16       6.4292      0.00000
     17       6.9157      0.00000
     18       7.9576      0.00000
     19       8.1298      0.00000
     20       8.4514      0.00000

 k-point     8 :       0.1818    0.1818    0.0000
  band No.  band energies     occupation 
      1     -19.2879      2.00000
      2     -19.2843      2.00000
      3     -19.2787      2.00000
      4     -19.2592      2.00000
      5     -19.2475      2.00000
      6      -8.7973      2.00000
      7      -7.4072      2.00000
      8      -3.4142      2.00000
      9      -0.6541      2.00000
     10      -0.1408      2.00000
     11       0.3862      2.00000
     12       1.9278      2.00000
     13       2.0830      2.00000
     14       4.6761      0.00000
     15       5.2283      0.00000
     16       5.8296      0.00000
     17       6.3162      0.00000
     18       7.6876      0.00000
     19       8.0376      0.00000
     20       8.7700      0.00000

 k-point     9 :       0.1364    0.1364    0.0000
  band No.  band energies     occupation 
      1     -19.2890      2.00000
      2     -19.2831      2.00000
      3     -19.2807      2.00000
      4     -19.2602      2.00000
      5     -19.2464      2.00000
      6      -8.9588      2.00000
      7      -7.4171      2.00000
      8      -3.4517      2.00000
      9      -0.1864      2.00000
     10       0.0251      2.00000
     11       0.6986      2.00000
     12       2.2679      2.00000
     13       2.4475      2.00000
     14       4.3064      0.00000
     15       5.1927      0.00000
     16       5.3851      0.00000
     17       5.7435      0.00000
     18       7.1358      0.00000
     19       7.4195      0.00000
     20       9.5271      0.00000

 k-point    10 :       0.0909    0.0909    0.0000
  band No.  band energies     occupation 
      1     -19.2908      2.00000
      2     -19.2821      2.00000
      3     -19.2812      2.00000
      4     -19.2609      2.00000
      5     -19.2455      2.00000
      6      -9.0772      2.00000
      7      -7.4262      2.00000
      8      -3.4908      2.00000
      9       0.1579      2.00000
     10       0.2239      2.00000
     11       1.1462      2.00000
     12       2.5877      2.00000
     13       2.7966      2.00000
     14       3.8144      0.00000
     15       4.6447      0.00000
     16       5.0368      0.00000
     17       5.8046      0.00000
     18       6.6572      0.00000
     19       6.8844      0.00000
     20       9.5457      0.00000

 k-point    11 :       0.0455    0.0455    0.0000
  band No.  band energies     occupation 
      1     -19.2922      2.00000
      2     -19.2814      2.00000
      3     -19.2812      2.00000
      4     -19.2614      2.00000
      5     -19.2449      2.00000
      6      -9.1492      2.00000
      7      -7.4327      2.00000
      8      -3.5195      2.00000
      9       0.3799      2.00000
     10       0.3929      2.00000
     11       1.6103      2.00000
     12       2.8313      2.00000
     13       3.0694      1.94571
     14       3.3824      0.00000
     15       4.2629      0.00000
     16       4.5768      0.00000
     17       6.0721      0.00000
     18       6.3163      0.00000
     19       6.5009      0.00000
     20       9.0790      0.00000

 k-point    12 :       0.0000    0.0000    0.0000
  band No.  band energies     occupation 
      1     -19.2928      2.00000
      2     -19.2812      2.00000
      3     -19.2812      2.00000
      4     -19.2616      2.00000
      5     -19.2447      2.00000
      6      -9.1734      2.00000
      7      -7.4350      2.00000
      8      -3.5300      2.00000
      9       0.4610      2.00000
     10       0.4610      2.00000
     11       1.8435      2.00000
     12       2.9256      2.00000
     13       3.1778      0.25347
     14       3.1778      0.25346
     15       4.1228      0.00000
     16       4.3912      0.00000
     17       6.1893      0.00000
     18       6.1893      0.00000
     19       6.3567      0.00000
     20       8.8947      0.00000

 k-point    13 :       0.0000    0.0000    0.0000
  band No.  band energies     occupation 
      1     -19.2928      2.00000
      2     -19.2812      2.00000
      3     -19.2812      2.00000
      4     -19.2616      2.00000
      5     -19.2447      2.00000
      6      -9.1734      2.00000
      7      -7.4350      2.00000
      8      -3.5300      2.00000
      9       0.4610      2.00000
     10       0.4610      2.00000
     11       1.8435      2.00000
     12       2.9256      2.00000
     13       3.1778      0.25347
     14       3.1778      0.25346
     15       4.1228      0.00000
     16       4.3912      0.00000
     17       6.1893      0.00000
     18       6.1893      0.00000
     19       6.3567      0.00000
     20       8.8947      0.00000

 k-point    14 :       0.0000    0.0000    0.0455
  band No.  band energies     occupation 
      1     -19.2928      2.00000
      2     -19.2812      2.00000
      3     -19.2812      2.00000
      4     -19.2616      2.00000
      5     -19.2448      2.00000
      6      -9.1675      2.00000
      7      -7.4502      2.00000
      8      -3.5059      2.00000
      9       0.4670      2.00000
     10       0.4670      2.00000
     11       1.7368      2.00000
     12       3.0257      1.99843
     13       3.1535      0.64942
     14       3.1535      0.64941
     15       4.1248      0.00000
     16       4.4085      0.00000
     17       6.2238      0.00000
     18       6.2238      0.00000
     19       6.3300      0.00000
     20       8.9399      0.00000

 k-point    15 :       0.0000    0.0000    0.0909
  band No.  band energies     occupation 
      1     -19.2928      2.00000
      2     -19.2812      2.00000
      3     -19.2812      2.00000
      4     -19.2616      2.00000
      5     -19.2448      2.00000
      6      -9.1497      2.00000
      7      -7.4945      2.00000
      8      -3.4348      2.00000
      9       0.4848      2.00000
     10       0.4849      2.00000
     11       1.4896      2.00000
     12       3.0843      1.86742
     13       3.0843      1.86742
     14       3.2490      0.00161
     15       4.1378      0.00000
     16       4.4562      0.00000
     17       6.2565      0.00000
     18       6.3236      0.00000
     19       6.3236      0.00000
     20       9.0694      0.00000

 k-point    16 :       0.0000    0.0000    0.1364
  band No.  band energies     occupation 
      1     -19.2928      2.00000
      2     -19.2812      2.00000
      3     -19.2812      2.00000
      4     -19.2616      2.00000
      5     -19.2448      2.00000
      6      -9.1201      2.00000
      7      -7.5644      2.00000
      8      -3.3203      2.00000
      9       0.5141      2.00000
     10       0.5141      2.00000
     11       1.1865      2.00000
     12       2.9794      1.99999
     13       2.9794      1.99999
     14       3.4964      0.00000
     15       4.1807      0.00000
     16       4.5254      0.00000
     17       6.1522      0.00000
     18       6.4796      0.00000
     19       6.4796      0.00000
     20       9.2679      0.00000

 k-point    17 :       0.0000    0.0000    0.1818
  band No.  band energies     occupation 
      1     -19.2928      2.00000
      2     -19.2812      2.00000
      3     -19.2812      2.00000
      4     -19.2615      2.00000
      5     -19.2448      2.00000
      6      -9.0790      2.00000
      7      -7.6552      2.00000
      8      -3.1672      2.00000
      9       0.5538      2.00000
     10       0.5538      2.00000
     11       0.8623      2.00000
     12       2.8505      2.00000
     13       2.8505      2.00000
     14       3.7034      0.00000
     15       4.2838      0.00000
     16       4.6082      0.00000
     17       6.0358      0.00000
     18       6.6808      0.00000
     19       6.6808      0.00000
     20       9.5194      0.00000

 k-point    18 :       0.0000    0.0000    0.2273
  band No.  band energies     occupation 
      1     -19.2928      2.00000
      2     -19.2812      2.00000
      3     -19.2812      2.00000
      4     -19.2615      2.00000
      5     -19.2448      2.00000
      6      -9.0265      2.00000
      7      -7.7615      2.00000
      8      -2.9810      2.00000
      9       0.5303      2.00000
     10       0.6028      2.00000
     11       0.6028      2.00000
     12       2.7086      2.00000
     13       2.7086      2.00000
     14       3.8358      0.00000
     15       4.4597      0.00000
     16       4.6994      0.00000
     17       5.9254      0.00000
     18       6.9167      0.00000
     19       6.9167      0.00000
     20      10.5802      0.00000

 k-point    19 :       0.0000    0.0000    0.2727
  band No.  band energies     occupation 
      1     -19.2928      2.00000
      2     -19.2812      2.00000
      3     -19.2812      2.00000
      4     -19.2615      2.00000
      5     -19.2448      2.00000
      6      -8.9630      2.00000
      7      -7.8784      2.00000
      8      -2.7667      2.00000
      9       0.1966      2.00000
     10       0.6589      2.00000
     11       0.6589      2.00000
     12       2.5637      2.00000
     13       2.5637      2.00000
     14       3.9142      0.00000
     15       4.6485      0.00000
     16       4.8136      0.00000
     17       5.8382      0.00000
     18       7.1788      0.00000
     19       7.1788      0.00000
     20       9.9939      0.00000

 k-point    20 :       0.0000    0.0000    0.3182
  band No.  band energies     occupation 
      1     -19.2928      2.00000
      2     -19.2812      2.00000
      3     -19.2812      2.00000
      4     -19.2614      2.00000
      5     -19.2448      2.00000
      6      -8.8890      2.00000
      7      -8.0012      2.00000
      8      -2.5290      2.00000
      9      -0.1355      2.00000
     10       0.7189      2.00000
     11       0.7189      2.00000
     12       2.4247      2.00000
     13       2.4247      2.00000
     14       3.9700      0.00000
     15       4.7482      0.00000
     16       4.9943      0.00000
     17       5.7892      0.00000
     18       7.4599      0.00000
     19       7.4599      0.00000
     20       9.6926      0.00000

 k-point    21 :       0.0000    0.0000    0.3636
  band No.  band energies     occupation 
      1     -19.2928      2.00000
      2     -19.2813      2.00000
      3     -19.2813      2.00000
      4     -19.2614      2.00000
      5     -19.2448      2.00000
      6      -8.8050      2.00000
      7      -8.1263      2.00000
      8      -2.2718      2.00000
      9      -0.4640      2.00000
     10       0.7783      2.00000
     11       0.7783      2.00000
     12       2.3003      2.00000
     13       2.3003      2.00000
     14       4.0167      0.00000
     15       4.7763      0.00000
     16       5.1870      0.00000
     17       5.7839      0.00000
     18       7.7543      0.00000
     19       7.7543      0.00000
     20       9.4603      0.00000

 k-point    22 :       0.0000    0.0000    0.4091
  band No.  band energies     occupation 
      1     -19.2928      2.00000
      2     -19.2813      2.00000
      3     -19.2813      2.00000
      4     -19.2614      2.00000
      5     -19.2448      2.00000
      6      -8.7123      2.00000
      7      -8.2500      2.00000
      8      -1.9983      2.00000
      9      -0.7872      2.00000
     10       0.8304      2.00000
     11       0.8304      2.00000
     12       2.2001      2.00000
     13       2.2001      2.00000
     14       4.0560      0.00000
     15       4.7709      0.00000
     16       5.3407      0.00000
     17       5.8105      0.00000
     18       8.0556      0.00000
     19       8.0556      0.00000
     20       9.3230      0.00000

 k-point    23 :       0.0000    0.0000    0.4545
  band No.  band energies     occupation 
      1     -19.2928      2.00000
      2     -19.2813      2.00000
      3     -19.2813      2.00000
      4     -19.2614      2.00000
      5     -19.2448      2.00000
      6      -8.6135      2.00000
      7      -8.3680      2.00000
      8      -1.7111      2.00000
      9      -1.1036      2.00000
     10       0.8670      2.00000
     11       0.8670      2.00000
     12       2.1339      2.00000
     13       2.1339      2.00000
     14       4.0839      0.00000
     15       4.7554      0.00000
     16       5.4377      0.00000
     17       5.8429      0.00000
     18       8.3500      0.00000
     19       8.3500      0.00000
     20       9.0986      0.00000

 k-point    24 :       0.0000    0.0000    0.5000
  band No.  band energies     occupation 
      1     -19.2928      2.00000
      2     -19.2813      2.00000
      3     -19.2813      2.00000
      4     -19.2614      2.00000
      5     -19.2448      2.00000
      6      -8.5396      2.00000
      7      -8.4484      2.00000
      8      -1.4236      2.00000
      9      -1.4008      2.00000
     10       0.8803      2.00000
     11       0.8803      2.00000
     12       2.1106      2.00000
     13       2.1106      2.00000
     14       4.0941      0.00000
     15       4.7478      0.00000
     16       5.4708      0.00000
     17       5.8568      0.00000
     18       8.5363      0.00000
     19       8.5363      0.00000
     20       8.9094      0.00000

 k-point    25 :       0.0000    0.0000    0.5000
  band No.  band energies     occupation 
      1     -19.2928      2.00000
      2     -19.2813      2.00000
      3     -19.2813      2.00000
      4     -19.2614      2.00000
      5     -19.2448      2.00000
      6      -8.5396      2.00000
      7      -8.4484      2.00000
      8      -1.4236      2.00000
      9      -1.4008      2.00000
     10       0.8803      2.00000
     11       0.8803      2.00000
     12       2.1106      2.00000
     13       2.1106      2.00000
     14       4.0941      0.00000
     15       4.7478      0.00000
     16       5.4708      0.00000
     17       5.8568      0.00000
     18       8.5363      0.00000
     19       8.5363      0.00000
     20       8.9094      0.00000

 k-point    26 :       0.0000    0.0455    0.5000
  band No.  band energies     occupation 
      1     -19.2925      2.00000
      2     -19.2814      2.00000
      3     -19.2813      2.00000
      4     -19.2613      2.00000
      5     -19.2448      2.00000
      6      -8.5306      2.00000
      7      -8.4388      2.00000
      8      -1.4604      2.00000
      9      -1.4355      2.00000
     10       0.8714      2.00000
     11       0.8873      2.00000
     12       2.0438      2.00000
     13       2.1203      2.00000
     14       4.1557      0.00000
     15       4.8225      0.00000
     16       5.4970      0.00000
     17       5.8732      0.00000
     18       8.3887      0.00000
     19       8.4979      0.00000
     20       8.6740      0.00000

 k-point    27 :       0.0000    0.0909    0.5000
  band No.  band energies     occupation 
      1     -19.2918      2.00000
      2     -19.2818      2.00000
      3     -19.2812      2.00000
      4     -19.2610      2.00000
      5     -19.2451      2.00000
      6      -8.5041      2.00000
      7      -8.4102      2.00000
      8      -1.5934      2.00000
      9      -1.5136      2.00000
     10       0.8574      2.00000
     11       0.9080      2.00000
     12       1.8849      2.00000
     13       2.1489      2.00000
     14       4.2884      0.00000
     15       5.0250      0.00000
     16       5.5024      0.00000
     17       5.9866      0.00000
     18       8.1033      0.00000
     19       8.3879      0.00000
     20       8.4290      0.00000

 k-point    28 :       0.0000    0.1364    0.5000
  band No.  band energies     occupation 
      1     -19.2907      2.00000
      2     -19.2824      2.00000
      3     -19.2812      2.00000
      4     -19.2606      2.00000
      5     -19.2456      2.00000
      6      -8.4613      2.00000
      7      -8.3639      2.00000
      8      -1.8042      2.00000
      9      -1.6401      2.00000
     10       0.8628      2.00000
     11       0.9411      2.00000
     12       1.7106      2.00000
     13       2.1950      2.00000
     14       4.3776      0.00000
     15       5.3405      0.00000
     16       5.3936      0.00000
     17       6.2281      0.00000
     18       7.8651      0.00000
     19       8.2205      0.00000
     20       8.3282      0.00000

 k-point    29 :       0.0000    0.1818    0.5000
  band No.  band energies     occupation 
      1     -19.2897      2.00000
      2     -19.2828      2.00000
      3     -19.2811      2.00000
      4     -19.2599      2.00000
      5     -19.2461      2.00000
      6      -8.4042      2.00000
      7      -8.3023      2.00000
      8      -2.0659      2.00000
      9      -1.8160      2.00000
     10       0.9044      2.00000
     11       0.9848      2.00000
     12       1.5764      2.00000
     13       2.2561      2.00000
     14       4.3579      0.00000
     15       5.1666      0.00000
     16       5.7705      0.00000
     17       6.4442      0.00000
     18       7.7861      0.00000
     19       8.0153      0.00000
     20       8.4523      0.00000

 k-point    30 :       0.0000    0.2273    0.5000
  band No.  band energies     occupation 
      1     -19.2892      2.00000
      2     -19.2827      2.00000
      3     -19.2809      2.00000
      4     -19.2591      2.00000
      5     -19.2468      2.00000
      6      -8.3360      2.00000
      7      -8.2286      2.00000
      8      -2.3516      2.00000
      9      -2.0312      2.00000
     10       0.9866      2.00000
     11       1.0362      2.00000
     12       1.5073      2.00000
     13       2.3287      2.00000
     14       4.2344      0.00000
     15       4.8753      0.00000
     16       6.2212      0.00000
     17       6.5385      0.00000
     18       7.7934      0.00000
     19       7.9114      0.00000
     20       8.2540      0.00000

 k-point    31 :       0.0000    0.2727    0.5000
  band No.  band energies     occupation 
      1     -19.2896      2.00000
      2     -19.2819      2.00000
      3     -19.2808      2.00000
      4     -19.2581      2.00000
      5     -19.2474      2.00000
      6      -8.2608      2.00000
      7      -8.1475      2.00000
      8      -2.6367      2.00000
      9      -2.2670      2.00000
     10       1.0919      2.00000
     11       1.1074      2.00000
     12       1.5062      2.00000
     13       2.4082      2.00000
     14       4.0309      0.00000
     15       4.5429      0.00000
     16       6.5464      0.00000
     17       6.6436      0.00000
     18       7.5744      0.00000
     19       8.0256      0.00000
     20       8.2251      0.00000

 k-point    32 :       0.0000    0.3182    0.5000
  band No.  band energies     occupation 
      1     -19.2904      2.00000
      2     -19.2807      2.00000
      3     -19.2807      2.00000
      4     -19.2570      2.00000
      5     -19.2480      2.00000
      6      -8.1842      2.00000
      7      -8.0648      2.00000
      8      -2.9004      2.00000
      9      -2.5011      2.00000
     10       1.1475      2.00000
     11       1.2607      2.00000
     12       1.5638      2.00000
     13       2.4884      2.00000
     14       3.7759      0.00000
     15       4.1987      0.00000
     16       6.5921      0.00000
     17       6.9352      0.00000
     18       7.3754      0.00000
     19       7.8018      0.00000
     20       8.6833      0.00000

 k-point    33 :       0.0000    0.3636    0.5000
  band No.  band energies     occupation 
      1     -19.2913      2.00000
      2     -19.2806      2.00000
      3     -19.2797      2.00000
      4     -19.2559      2.00000
      5     -19.2486      2.00000
      6      -8.1130      2.00000
      7      -7.9880      2.00000
      8      -3.1256      2.00000
      9      -2.7110      2.00000
     10       1.1981      2.00000
     11       1.4377      2.00000
     12       1.6647      2.00000
     13       2.5623      2.00000
     14       3.4992      0.00000
     15       3.8691      0.00000
     16       6.6433      0.00000
     17       7.1542      0.00000
     18       7.2101      0.00000
     19       7.6005      0.00000
     20       9.1505      0.00000

 k-point    34 :       0.0000    0.4091    0.5000
  band No.  band energies     occupation 
      1     -19.2921      2.00000
      2     -19.2806      2.00000
      3     -19.2789      2.00000
      4     -19.2550      2.00000
      5     -19.2490      2.00000
      6      -8.0544      2.00000
      7      -7.9249      2.00000
      8      -3.2981      2.00000
      9      -2.8771      2.00000
     10       1.2388      2.00000
     11       1.6219      2.00000
     12       1.7877      2.00000
     13       2.6226      2.00000
     14       3.2321      0.00742
     15       3.5819      0.00000
     16       6.6999      0.00000
     17       7.0881      0.00000
     18       7.3119      0.00000
     19       7.4390      0.00000
     20       9.3898      0.00000

 k-point    35 :       0.0000    0.4545    0.5000
  band No.  band energies     occupation 
      1     -19.2926      2.00000
      2     -19.2805      2.00000
      3     -19.2784      2.00000
      4     -19.2544      2.00000
      5     -19.2493      2.00000
      6      -8.0157      2.00000
      7      -7.8832      2.00000
      8      -3.4066      2.00000
      9      -2.9836      2.00000
     10       1.2653      2.00000
     11       1.7782      2.00000
     12       1.9005      2.00000
     13       2.6621      2.00000
     14       3.0178      1.99928
     15       3.3745      0.00000
     16       6.7446      0.00000
     17       7.0145      0.00000
     18       7.3333      0.00000
     19       7.4117      0.00000
     20       9.4128      0.00000

 k-point    36 :       0.0000    0.5000    0.5000
  band No.  band energies     occupation 
      1     -19.2927      2.00000
      2     -19.2805      2.00000
      3     -19.2782      2.00000
      4     -19.2542      2.00000
      5     -19.2494      2.00000
      6      -8.0021      2.00000
      7      -7.8686      2.00000
      8      -3.4437      2.00000
      9      -3.0204      2.00000
     10       1.2745      2.00000
     11       1.8436      2.00000
     12       1.9511      2.00000
     13       2.6759      2.00000
     14       2.9288      2.00000
     15       3.2959      0.00001
     16       6.7616      0.00000
     17       6.9901      0.00000
     18       7.2964      0.00000
     19       7.4465      0.00000
     20       9.4024      0.00000


--------------------------------------------------------------------------------------------------------


 soft charge-density along one line, spin component           1
         0         1         2         3         4         5         6         7         8         9
 total charge-density along one line
 
 pseudopotential strength for first ion, spin component:           1
  5.699   6.820  -0.000  -0.005  -0.000  -0.000  -0.010  -0.000
  6.820   8.153  -0.000  -0.007   0.000  -0.000  -0.012  -0.000
 -0.000  -0.000   1.277  -0.000   0.000   2.133  -0.000   0.000
 -0.005  -0.007  -0.000   1.279   0.000  -0.000   2.136   0.000
 -0.000   0.000   0.000   0.000   1.279   0.000   0.000   2.137
 -0.000  -0.000   2.133  -0.000   0.000   3.579  -0.000   0.000
 -0.010  -0.012  -0.000   2.136   0.000  -0.000   3.584   0.000
 -0.000  -0.000   0.000   0.000   2.137   0.000   0.000   3.586
  0.000   0.000  -0.000   0.000  -0.000   0.000   0.000  -0.000
 -0.000  -0.000  -0.002  -0.000   0.000  -0.003  -0.000   0.000
  0.001   0.001   0.000  -0.001  -0.000   0.000  -0.002  -0.000
  0.000   0.000   0.000   0.000   0.001   0.000   0.000   0.001
  0.003   0.004   0.000   0.001  -0.000   0.000   0.002   0.000
 total augmentation occupancy for first ion, spin component:           1
  2.000   0.000   0.000   0.000   0.000   0.000   0.000   0.000   0.000   0.000   0.000   0.000   0.000
  0.000   0.000   0.000   0.000   0.000   0.000   0.000   0.000   0.000   0.000   0.000   0.000   0.000
  0.000   0.000   0.333   0.000   0.000   0.000   0.000   0.000   0.000   0.000   0.000   0.000   0.000
  0.000   0.000   0.000   0.333   0.000   0.000   0.000   0.000   0.000   0.000   0.000   0.000   0.000
  0.000   0.000   0.000   0.000   0.333   0.000   0.000   0.000   0.000   0.000   0.000   0.000   0.000
  0.000   0.000   0.000   0.000   0.000   0.000   0.000   0.000   0.000   0.000   0.000   0.000   0.000
  0.000   0.000   0.000   0.000   0.000   0.000   0.000   0.000   0.000   0.000   0.000   0.000   0.000
  0.000   0.000   0.000   0.000   0.000   0.000   0.000   0.000   0.000   0.000   0.000   0.000   0.000
  0.000   0.000   0.000   0.000   0.000   0.000   0.000   0.000   0.000   0.000   0.000   0.000   0.000
  0.000   0.000   0.000   0.000   0.000   0.000   0.000   0.000   0.000   0.000   0.000   0.000   0.000
  0.000   0.000   0.000   0.000   0.000   0.000   0.000   0.000   0.000   0.000   0.000   0.000   0.000
  0.000   0.000   0.000   0.000   0.000   0.000   0.000   0.000   0.000   0.000   0.000   0.000   0.000
  0.000   0.000   0.000   0.000   0.000   0.000   0.000   0.000   0.000   0.000   0.000   0.000   0.000


------------------------ aborting loop because EDIFF is reached ----------------------------------------


 


 total charge     
 
# of ion       s       p       d       tot
------------------------------------------
    1        1.109   1.015   0.106   2.230
    2        1.140   0.998   0.108   2.246
    3        1.460   1.661   9.900  13.021
    4        1.275   1.578   0.023   2.877
--------------------------------------------------
tot          4.985   5.253  10.137  20.375
 
    CHARGE:  cpu time    0.0371: real time    0.0401
    FORLOC:  cpu time    0.0018: real time    0.0019
    FORNL :  cpu time    0.0816: real time    0.0847
    STRESS:  cpu time    0.3390: real time    0.3397
    FORCOR:  cpu time    0.0166: real time    0.0181
    FORHAR:  cpu time    0.0061: real time    0.0061
    OFIELD:  cpu time    0.0001: real time    0.0001

  FORCE on cell =-STRESS in cart. coord.  units (eV):
  Direction    XX          YY          ZZ          XY          YZ          ZX
  --------------------------------------------------------------------------------------
  Alpha Z    64.20129    64.20129    64.20129
  Ewald    -439.74121  -439.74123  -560.43629     0.00000     0.00000    -0.00000
  Hartree   290.55320   290.55320   176.61435    -0.00000    -0.00000    -0.00000
  E(xc)    -113.40333  -113.40333  -112.41420     0.00000     0.00000     0.00000
  Local    -325.12162  -325.12161   -78.30958    -0.00000     0.00000    -0.00000
  n-local   165.46603   163.19762   157.16148    -1.16754     0.00000     0.00000
  augment   137.86976   137.86976   140.19027     0.00000    -0.00000    -0.00000
  Kinetic   239.36997   230.69919   221.92288    -2.26592    -0.00001    -0.00001
  Fock        0.00000     0.00000     0.00000     0.00000     0.00000     0.00000
  -------------------------------------------------------------------------------------
  Total      13.72449    13.72449     8.93019     0.00000     0.00000     0.00000
  in kB     193.49005   193.49005   125.89928     0.00000     0.00000     0.00000
  external pressure =      170.96 kB  Pullay stress =        0.00 kB


 VOLUME and BASIS-vectors are now :
 -----------------------------------------------------------------------------
  energy-cutoff  :      500.00
  volume of cell :      113.64
      direct lattice vectors                 reciprocal lattice vectors
     4.300140858  0.000000000  0.000000000     0.232550522  0.000000000  0.000000000
     0.000000000  4.300140858  0.000000000     0.000000000  0.232550522  0.000000000
     0.000000000  0.000000000  6.145861149     0.000000000  0.000000000  0.162711128

  length of vectors
     4.300140858  4.300140858  6.145861149     0.232550522  0.232550522  0.162711128


 FORCES acting on ions
    electron-ion (+dipol)            ewald-force                    non-local-force                 convergence-correction
 -----------------------------------------------------------------------------------------------
   -.555E-14 0.578E-14 0.462E+02   0.261E-14 -.178E-15 -.473E+02   0.000E+00 0.000E+00 -.104E+00   0.377E-14 0.129E-15 0.915E+00
   -.221E-14 -.826E-15 -.462E+02   -.168E-14 -.547E-14 0.473E+02   0.000E+00 0.000E+00 0.104E+00   0.102E-13 0.239E-13 -.915E+00
   -.215E-13 -.219E-13 0.750E-06   -.341E-14 0.631E-14 0.425E-05   0.000E+00 0.127E-20 0.000E+00   0.163E-12 -.248E-12 -.264E-05
   0.170E-13 0.387E-12 0.937E-07   0.139E-14 0.780E-16 0.515E-06   0.106E-21 -.159E-21 0.000E+00   0.753E-14 0.278E-14 0.118E-06
 -----------------------------------------------------------------------------------------------
   -.123E-13 0.371E-12 0.410E-06   -.109E-14 0.740E-15 -.355E-14   0.106E-21 0.111E-20 0.000E+00   0.185E-12 -.221E-12 -.167E-05
 
 
 POSITION                                       TOTAL-FORCE (eV/Angst)
 -----------------------------------------------------------------------------------
      2.15007      0.00000      4.46027        -0.000000     -0.000000     -0.270056
      0.00000      2.15007      1.68559         0.000000     -0.000000      0.270056
      0.00000      0.00000      0.00000        -0.000000     -0.000000      0.000000
      2.15007      2.15007      3.07293        -0.000000      0.000000      0.000000
 -----------------------------------------------------------------------------------
    total drift:                                0.000000      0.000000     -0.000001


--------------------------------------------------------------------------------------------------------



  FREE ENERGIE OF THE ION-ELECTRON SYSTEM (eV)
  ---------------------------------------------------
  free  energy   TOTEN  =        -9.90474212 eV

  energy  without entropy=       -9.90103197  energy(sigma->0) =       -9.90288704
 


--------------------------------------------------------------------------------------------------------


    POTLOK:  cpu time    0.0195: real time    0.0207


--------------------------------------------------------------------------------------------------------


 writing wavefunctions
     LOOP+:  cpu time    4.6261: real time    5.3362
    4ORBIT:  cpu time    0.0000: real time    0.0000
 


 total charge     
 
# of ion       s       p       d       tot
------------------------------------------
    1        1.109   1.015   0.106   2.230
    2        1.140   0.998   0.108   2.246
    3        1.460   1.661   9.900  13.021
    4        1.275   1.578   0.023   2.877
--------------------------------------------------
tot          4.985   5.253  10.137  20.375
 

 total amount of memory used by VASP MPI-rank0    38527. kBytes
=======================================================================

   base      :      30000. kBytes
   nonl-proj :       5746. kBytes
   fftplans  :        603. kBytes
   grid      :       1046. kBytes
   one-center:         15. kBytes
   wavefun   :       1117. kBytes
 
  
  
 General timing and accounting informations for this job:
 ========================================================
  
                  Total CPU time used (sec):        7.751
                            User time (sec):        7.562
                          System time (sec):        0.189
                         Elapsed time (sec):       16.222
  
                   Maximum memory used (kb):       64656.
                   Average memory used (kb):           0.
  
                          Minor page faults:        12832
                          Major page faults:            0
                 Voluntary context switches:          796
