 running on   32 total cores
 distrk:  each k-point on   32 cores,    1 groups
 distr:  one band on    8 cores,    4 groups
 using from now: INCAR     
 vasp.5.4.4.18Apr17-6-g9f103f2a35 (build Dec 22 2021 20:00:30) complex          
  
 POSCAR found type information on POSCAR  Ga Bi As
 POSCAR found :  3 types and       4 ions
 scaLAPACK will be used
 LDA part: xc-table for Pade appr. of Perdew
 found WAVECAR, reading the header
  number of k-points has changed, file:    15 present:    36
  trying to continue reading WAVECAR, but it might fail
 WARNING: stress and forces are not correct
 POSCAR, INCAR and KPOINTS ok, starting setup
 FFT: planning ...
 reading WAVECAR
 the WAVECAR file was read successfully
 reading imaginary part of occupancies ...
 charge-density read from file: Ga2BiAs                                 
 entering main loop
       N       E                     dE             d eps       ncg     rms          rms(c)
DAV:   1    -0.808642377126E+01   -0.80864E+01   -0.19198E+02  1908   0.743E+01
DAV:   2    -0.986289963802E+01   -0.17765E+01   -0.17538E+01  1616   0.205E+01
DAV:   3    -0.990388542911E+01   -0.40986E-01   -0.40973E-01  2116   0.405E+00
DAV:   4    -0.990471126845E+01   -0.82584E-03   -0.82574E-03  1712   0.434E-01
DAV:   5    -0.990474183970E+01   -0.30571E-04   -0.30571E-04  1776   0.715E-02
DAV:   6    -0.990474211569E+01   -0.27599E-06   -0.27611E-06  1080   0.997E-03
   1 F= -.99047421E+01 E0= -.99028870E+01  d E =-.371014E-02
 writing wavefunctions
