PROCAR lm decomposed
# of k-points:   36         # of bands:   20         # of ions:    4

 k-point     1 :    0.50000000 0.50000000 0.00000000     weight = 0.02777778

band     1 # energy  -19.29162821 # occ.  2.00000000
 
ion      s     py     pz     px    dxy    dyz    dz2    dxz  x2-y2    tot
    1  0.002  0.000  0.001  0.000  0.000  0.000  0.000  0.000  0.000  0.003
    2  0.000  0.000  0.000  0.000  0.000  0.000  0.000  0.000  0.000  0.000
    3  0.000  0.000  0.000  0.000  0.000  0.000  0.000  0.985  0.000  0.985
    4  0.000  0.000  0.000  0.000  0.000  0.000  0.000  0.000  0.000  0.000
tot    0.002  0.000  0.001  0.000  0.000  0.000  0.000  0.985  0.000  0.988
 
band     2 # energy  -19.29162817 # occ.  2.00000000
 
ion      s     py     pz     px    dxy    dyz    dz2    dxz  x2-y2    tot
    1  0.000  0.000  0.000  0.000  0.000  0.000  0.000  0.000  0.000  0.000
    2  0.002  0.000  0.001  0.000  0.000  0.000  0.000  0.000  0.000  0.003
    3  0.000  0.000  0.000  0.000  0.000  0.985  0.000  0.000  0.000  0.985
    4  0.000  0.000  0.000  0.000  0.000  0.000  0.000  0.000  0.000  0.000
tot    0.002  0.000  0.001  0.000  0.000  0.985  0.000  0.000  0.000  0.988
 
band     3 # energy  -19.25658462 # occ.  2.00000000
 
ion      s     py     pz     px    dxy    dyz    dz2    dxz  x2-y2    tot
    1  0.000  0.000  0.000  0.000  0.000  0.000  0.000  0.000  0.000  0.001
    2  0.000  0.000  0.000  0.000  0.000  0.000  0.000  0.000  0.000  0.001
    3  0.000  0.000  0.000  0.000  0.000  0.000  0.000  0.000  0.987  0.987
    4  0.000  0.000  0.000  0.000  0.000  0.000  0.000  0.000  0.000  0.000
tot    0.000  0.000  0.000  0.000  0.000  0.000  0.000  0.000  0.987  0.989
 
band     4 # energy  -19.25459306 # occ.  2.00000000
 
ion      s     py     pz     px    dxy    dyz    dz2    dxz  x2-y2    tot
    1  0.000  0.000  0.000  0.000  0.000  0.000  0.000  0.000  0.000  0.000
    2  0.000  0.000  0.000  0.000  0.000  0.000  0.000  0.000  0.000  0.000
    3  0.000  0.000  0.000  0.000  0.986  0.000  0.000  0.000  0.000  0.986
    4  0.000  0.000  0.000  0.000  0.000  0.000  0.000  0.000  0.000  0.000
tot    0.000  0.000  0.000  0.000  0.986  0.000  0.000  0.000  0.000  0.987
 
band     5 # energy  -19.25388372 # occ.  2.00000000
 
ion      s     py     pz     px    dxy    dyz    dz2    dxz  x2-y2    tot
    1  0.000  0.000  0.000  0.000  0.000  0.000  0.000  0.000  0.000  0.000
    2  0.000  0.000  0.000  0.000  0.000  0.000  0.000  0.000  0.000  0.000
    3  0.000  0.000  0.000  0.000  0.000  0.000  0.987  0.000  0.000  0.987
    4  0.000  0.000  0.000  0.000  0.000  0.000  0.000  0.000  0.000  0.000
tot    0.000  0.000  0.000  0.000  0.000  0.000  0.987  0.000  0.000  0.987
 
band     6 # energy   -7.49944854 # occ.  2.00000000
 
ion      s     py     pz     px    dxy    dyz    dz2    dxz  x2-y2    tot
    1  0.000  0.036  0.000  0.000  0.000  0.006  0.000  0.000  0.000  0.042
    2  0.000  0.000  0.000  0.036  0.000  0.000  0.000  0.006  0.000  0.042
    3  0.000  0.000  0.000  0.000  0.000  0.000  0.000  0.000  0.000  0.000
    4  0.612  0.000  0.000  0.000  0.000  0.000  0.000  0.000  0.000  0.612
tot    0.612  0.036  0.000  0.036  0.000  0.006  0.000  0.006  0.000  0.696
 
band     7 # energy   -7.30259815 # occ.  2.00000000
 
ion      s     py     pz     px    dxy    dyz    dz2    dxz  x2-y2    tot
    1  0.000  0.000  0.000  0.027  0.000  0.000  0.000  0.005  0.000  0.032
    2  0.000  0.027  0.000  0.000  0.000  0.005  0.000  0.000  0.000  0.032
    3  0.733  0.000  0.000  0.000  0.000  0.000  0.000  0.000  0.000  0.733
    4  0.000  0.000  0.000  0.000  0.000  0.000  0.000  0.000  0.000  0.000
tot    0.733  0.027  0.000  0.027  0.000  0.005  0.000  0.005  0.000  0.797
 
band     8 # energy   -3.53686464 # occ.  2.00000000
 
ion      s     py     pz     px    dxy    dyz    dz2    dxz  x2-y2    tot
    1  0.001  0.000  0.000  0.000  0.002  0.000  0.000  0.000  0.000  0.003
    2  0.550  0.000  0.001  0.000  0.000  0.000  0.001  0.000  0.000  0.551
    3  0.000  0.059  0.000  0.000  0.000  0.005  0.000  0.000  0.000  0.064
    4  0.000  0.000  0.000  0.076  0.000  0.000  0.000  0.002  0.000  0.079
tot    0.551  0.059  0.001  0.076  0.002  0.005  0.001  0.002  0.000  0.696
 
band     9 # energy   -3.53686459 # occ.  2.00000000
 
ion      s     py     pz     px    dxy    dyz    dz2    dxz  x2-y2    tot
    1  0.550  0.000  0.001  0.000  0.000  0.000  0.001  0.000  0.000  0.551
    2  0.001  0.000  0.000  0.000  0.002  0.000  0.000  0.000  0.000  0.003
    3  0.000  0.000  0.000  0.059  0.000  0.000  0.000  0.005  0.000  0.064
    4  0.000  0.076  0.000  0.000  0.000  0.002  0.000  0.000  0.000  0.079
tot    0.551  0.076  0.001  0.059  0.002  0.002  0.001  0.005  0.000  0.696
 
band    10 # energy    0.32214923 # occ.  2.00000000
 
ion      s     py     pz     px    dxy    dyz    dz2    dxz  x2-y2    tot
    1  0.000  0.122  0.000  0.000  0.000  0.001  0.000  0.000  0.000  0.123
    2  0.000  0.000  0.000  0.122  0.000  0.000  0.000  0.001  0.000  0.123
    3  0.000  0.000  0.000  0.000  0.000  0.000  0.000  0.000  0.000  0.000
    4  0.000  0.000  0.297  0.000  0.000  0.000  0.000  0.000  0.001  0.298
tot    0.000  0.122  0.297  0.122  0.000  0.001  0.000  0.001  0.001  0.544
 
band    11 # energy    0.58899904 # occ.  2.00000000
 
ion      s     py     pz     px    dxy    dyz    dz2    dxz  x2-y2    tot
    1  0.002  0.000  0.248  0.000  0.000  0.000  0.000  0.000  0.005  0.256
    2  0.000  0.000  0.001  0.000  0.000  0.000  0.000  0.000  0.000  0.001
    3  0.000  0.001  0.000  0.178  0.000  0.000  0.000  0.002  0.000  0.181
    4  0.000  0.139  0.000  0.001  0.000  0.000  0.000  0.000  0.000  0.139
tot    0.002  0.139  0.250  0.179  0.000  0.000  0.000  0.002  0.005  0.578
 
band    12 # energy    0.58899915 # occ.  2.00000000
 
ion      s     py     pz     px    dxy    dyz    dz2    dxz  x2-y2    tot
    1  0.000  0.000  0.001  0.000  0.000  0.000  0.000  0.000  0.000  0.001
    2  0.002  0.000  0.248  0.000  0.000  0.000  0.000  0.000  0.005  0.256
    3  0.000  0.178  0.000  0.001  0.000  0.002  0.000  0.000  0.000  0.181
    4  0.000  0.001  0.000  0.139  0.000  0.000  0.000  0.000  0.000  0.139
tot    0.002  0.179  0.250  0.139  0.000  0.002  0.000  0.000  0.005  0.578
 
band    13 # energy    0.89127158 # occ.  2.00000000
 
ion      s     py     pz     px    dxy    dyz    dz2    dxz  x2-y2    tot
    1  0.000  0.000  0.000  0.131  0.000  0.000  0.000  0.004  0.000  0.135
    2  0.000  0.131  0.000  0.000  0.000  0.004  0.000  0.000  0.000  0.135
    3  0.000  0.000  0.338  0.000  0.000  0.000  0.000  0.000  0.001  0.339
    4  0.000  0.000  0.000  0.000  0.000  0.000  0.000  0.000  0.000  0.000
tot    0.000  0.131  0.338  0.131  0.000  0.004  0.000  0.004  0.001  0.608
 
band    14 # energy    3.87003931 # occ.  0.00000000
 
ion      s     py     pz     px    dxy    dyz    dz2    dxz  x2-y2    tot
    1  0.000  0.000  0.000  0.125  0.000  0.000  0.000  0.016  0.000  0.141
    2  0.000  0.125  0.000  0.000  0.000  0.016  0.000  0.000  0.000  0.141
    3  0.066  0.000  0.000  0.000  0.000  0.000  0.011  0.000  0.000  0.078
    4  0.000  0.000  0.000  0.000  0.019  0.000  0.000  0.000  0.000  0.019
tot    0.066  0.125  0.000  0.125  0.019  0.016  0.011  0.016  0.000  0.379
 
band    15 # energy    4.22813942 # occ.  0.00000000
 
ion      s     py     pz     px    dxy    dyz    dz2    dxz  x2-y2    tot
    1  0.002  0.000  0.000  0.000  0.031  0.000  0.000  0.000  0.000  0.034
    2  0.188  0.000  0.001  0.000  0.000  0.000  0.011  0.000  0.000  0.200
    3  0.000  0.087  0.000  0.001  0.000  0.025  0.000  0.000  0.000  0.114
    4  0.000  0.001  0.000  0.059  0.000  0.000  0.000  0.015  0.000  0.075
tot    0.190  0.088  0.001  0.060  0.032  0.026  0.011  0.015  0.000  0.422
 
band    16 # energy    4.22813945 # occ.  0.00000000
 
ion      s     py     pz     px    dxy    dyz    dz2    dxz  x2-y2    tot
    1  0.188  0.000  0.001  0.000  0.000  0.000  0.011  0.000  0.000  0.200
    2  0.002  0.000  0.000  0.000  0.031  0.000  0.000  0.000  0.000  0.034
    3  0.000  0.001  0.000  0.087  0.000  0.000  0.000  0.025  0.000  0.114
    4  0.000  0.059  0.000  0.001  0.000  0.015  0.000  0.000  0.000  0.075
tot    0.190  0.060  0.001  0.088  0.032  0.015  0.011  0.026  0.000  0.422
 
band    17 # energy    4.66650399 # occ.  0.00000000
 
ion      s     py     pz     px    dxy    dyz    dz2    dxz  x2-y2    tot
    1  0.000  0.092  0.000  0.000  0.000  0.021  0.000  0.000  0.000  0.113
    2  0.000  0.000  0.000  0.092  0.000  0.000  0.000  0.021  0.000  0.113
    3  0.000  0.000  0.000  0.000  0.037  0.000  0.000  0.000  0.000  0.037
    4  0.062  0.000  0.000  0.000  0.000  0.000  0.007  0.000  0.000  0.069
tot    0.062  0.092  0.000  0.092  0.037  0.021  0.007  0.021  0.000  0.332
 
band    18 # energy   10.94848540 # occ.  0.00000000
 
ion      s     py     pz     px    dxy    dyz    dz2    dxz  x2-y2    tot
    1  0.000  0.165  0.000  0.000  0.000  0.016  0.000  0.000  0.000  0.181
    2  0.000  0.000  0.000  0.165  0.000  0.000  0.000  0.016  0.000  0.181
    3  0.000  0.000  0.000  0.000  0.000  0.000  0.000  0.000  0.000  0.000
    4  0.000  0.000  0.253  0.000  0.000  0.000  0.000  0.000  0.024  0.277
tot    0.000  0.165  0.253  0.165  0.000  0.016  0.000  0.016  0.024  0.639
 
band    19 # energy   11.07731293 # occ.  0.00000000
 
ion      s     py     pz     px    dxy    dyz    dz2    dxz  x2-y2    tot
    1  0.016  0.000  0.120  0.000  0.001  0.000  0.000  0.000  0.022  0.160
    2  0.015  0.000  0.108  0.000  0.001  0.000  0.000  0.000  0.020  0.144
    3  0.000  0.003  0.000  0.003  0.000  0.008  0.000  0.009  0.000  0.023
    4  0.000  0.157  0.000  0.141  0.000  0.000  0.000  0.000  0.000  0.298
tot    0.031  0.159  0.229  0.144  0.002  0.008  0.000  0.009  0.042  0.624
 
band    20 # energy   11.07731980 # occ.  0.00000000
 
ion      s     py     pz     px    dxy    dyz    dz2    dxz  x2-y2    tot
    1  0.014  0.000  0.109  0.000  0.001  0.000  0.000  0.000  0.020  0.144
    2  0.016  0.000  0.121  0.000  0.001  0.000  0.000  0.000  0.022  0.160
    3  0.000  0.003  0.000  0.003  0.000  0.009  0.000  0.008  0.000  0.023
    4  0.000  0.140  0.000  0.156  0.000  0.000  0.000  0.000  0.000  0.297
tot    0.031  0.143  0.230  0.159  0.002  0.009  0.000  0.009  0.042  0.625
 

 k-point     2 :    0.45454545 0.45454545 0.00000000     weight = 0.02777778

band     1 # energy  -19.29149086 # occ.  2.00000000
 
ion      s     py     pz     px    dxy    dyz    dz2    dxz  x2-y2    tot
    1  0.001  0.000  0.000  0.000  0.000  0.000  0.000  0.000  0.000  0.002
    2  0.001  0.000  0.000  0.000  0.000  0.000  0.000  0.000  0.000  0.002
    3  0.000  0.000  0.000  0.000  0.000  0.491  0.000  0.492  0.002  0.985
    4  0.000  0.000  0.000  0.000  0.000  0.000  0.000  0.000  0.000  0.000
tot    0.002  0.000  0.001  0.000  0.000  0.491  0.000  0.492  0.002  0.988
 
band     2 # energy  -19.29142859 # occ.  2.00000000
 
ion      s     py     pz     px    dxy    dyz    dz2    dxz  x2-y2    tot
    1  0.001  0.000  0.000  0.000  0.000  0.000  0.000  0.000  0.000  0.002
    2  0.001  0.000  0.000  0.000  0.000  0.000  0.000  0.000  0.000  0.002
    3  0.000  0.000  0.000  0.000  0.000  0.493  0.000  0.492  0.000  0.985
    4  0.000  0.000  0.000  0.000  0.000  0.000  0.000  0.000  0.000  0.000
tot    0.002  0.000  0.001  0.000  0.000  0.493  0.000  0.492  0.000  0.988
 
band     3 # energy  -19.25727251 # occ.  2.00000000
 
ion      s     py     pz     px    dxy    dyz    dz2    dxz  x2-y2    tot
    1  0.000  0.000  0.000  0.000  0.000  0.000  0.000  0.000  0.000  0.001
    2  0.000  0.000  0.000  0.000  0.000  0.000  0.000  0.000  0.000  0.001
    3  0.000  0.000  0.000  0.000  0.000  0.001  0.000  0.001  0.986  0.987
    4  0.000  0.000  0.000  0.000  0.000  0.000  0.000  0.000  0.000  0.000
tot    0.000  0.000  0.000  0.000  0.000  0.001  0.000  0.001  0.986  0.989
 
band     4 # energy  -19.25438771 # occ.  2.00000000
 
ion      s     py     pz     px    dxy    dyz    dz2    dxz  x2-y2    tot
    1  0.000  0.000  0.000  0.000  0.000  0.000  0.000  0.000  0.000  0.000
    2  0.000  0.000  0.000  0.000  0.000  0.000  0.000  0.000  0.000  0.000
    3  0.000  0.000  0.000  0.000  0.986  0.000  0.000  0.000  0.000  0.986
    4  0.000  0.000  0.000  0.000  0.000  0.000  0.000  0.000  0.000  0.000
tot    0.000  0.000  0.000  0.000  0.986  0.000  0.000  0.000  0.000  0.987
 
band     5 # energy  -19.25402088 # occ.  2.00000000
 
ion      s     py     pz     px    dxy    dyz    dz2    dxz  x2-y2    tot
    1  0.000  0.000  0.000  0.000  0.000  0.000  0.000  0.000  0.000  0.000
    2  0.000  0.000  0.000  0.000  0.000  0.000  0.000  0.000  0.000  0.000
    3  0.000  0.000  0.000  0.000  0.000  0.000  0.987  0.000  0.000  0.987
    4  0.000  0.000  0.000  0.000  0.000  0.000  0.000  0.000  0.000  0.000
tot    0.000  0.000  0.000  0.000  0.000  0.000  0.987  0.000  0.000  0.987
 
band     6 # energy   -7.53203470 # occ.  2.00000000
 
ion      s     py     pz     px    dxy    dyz    dz2    dxz  x2-y2    tot
    1  0.004  0.034  0.000  0.001  0.000  0.005  0.000  0.000  0.000  0.044
    2  0.004  0.001  0.000  0.034  0.000  0.000  0.000  0.005  0.000  0.044
    3  0.017  0.000  0.000  0.000  0.000  0.000  0.000  0.000  0.000  0.017
    4  0.591  0.000  0.000  0.000  0.000  0.000  0.000  0.000  0.000  0.591
tot    0.616  0.035  0.000  0.035  0.000  0.005  0.000  0.005  0.000  0.697
 
band     7 # energy   -7.33026051 # occ.  2.00000000
 
ion      s     py     pz     px    dxy    dyz    dz2    dxz  x2-y2    tot
    1  0.002  0.001  0.000  0.025  0.000  0.000  0.000  0.004  0.000  0.034
    2  0.002  0.025  0.000  0.001  0.000  0.004  0.000  0.000  0.000  0.034
    3  0.709  0.000  0.000  0.000  0.000  0.000  0.000  0.000  0.000  0.710
    4  0.016  0.000  0.000  0.000  0.000  0.000  0.000  0.000  0.000  0.016
tot    0.729  0.027  0.001  0.027  0.000  0.005  0.000  0.005  0.000  0.792
 
band     8 # energy   -3.52631458 # occ.  2.00000000
 
ion      s     py     pz     px    dxy    dyz    dz2    dxz  x2-y2    tot
    1  0.276  0.000  0.000  0.000  0.001  0.000  0.000  0.000  0.000  0.278
    2  0.276  0.000  0.000  0.000  0.001  0.000  0.000  0.000  0.000  0.278
    3  0.000  0.029  0.001  0.029  0.000  0.002  0.000  0.002  0.000  0.064
    4  0.000  0.038  0.001  0.038  0.000  0.001  0.000  0.001  0.000  0.078
tot    0.553  0.067  0.002  0.067  0.002  0.003  0.000  0.003  0.000  0.698
 
band     9 # energy   -3.44174860 # occ.  2.00000000
 
ion      s     py     pz     px    dxy    dyz    dz2    dxz  x2-y2    tot
    1  0.269  0.001  0.000  0.000  0.001  0.000  0.000  0.000  0.000  0.272
    2  0.269  0.000  0.000  0.001  0.001  0.000  0.000  0.000  0.000  0.272
    3  0.007  0.029  0.000  0.029  0.000  0.002  0.000  0.002  0.000  0.070
    4  0.006  0.038  0.000  0.038  0.000  0.001  0.000  0.001  0.000  0.084
tot    0.551  0.069  0.001  0.069  0.002  0.004  0.001  0.004  0.000  0.699
 
band    10 # energy    0.29418719 # occ.  2.00000000
 
ion      s     py     pz     px    dxy    dyz    dz2    dxz  x2-y2    tot
    1  0.001  0.116  0.003  0.001  0.000  0.002  0.000  0.000  0.000  0.123
    2  0.001  0.001  0.003  0.116  0.000  0.000  0.000  0.002  0.000  0.123
    3  0.000  0.000  0.003  0.000  0.000  0.000  0.000  0.000  0.000  0.004
    4  0.000  0.006  0.279  0.006  0.000  0.000  0.000  0.000  0.001  0.292
tot    0.002  0.123  0.288  0.123  0.000  0.002  0.000  0.002  0.001  0.542
 
band    11 # energy    0.54119212 # occ.  2.00000000
 
ion      s     py     pz     px    dxy    dyz    dz2    dxz  x2-y2    tot
    1  0.001  0.002  0.120  0.003  0.000  0.000  0.000  0.000  0.002  0.129
    2  0.001  0.003  0.120  0.002  0.000  0.000  0.000  0.000  0.002  0.129
    3  0.000  0.088  0.000  0.088  0.000  0.001  0.000  0.001  0.000  0.178
    4  0.000  0.067  0.000  0.067  0.000  0.000  0.000  0.000  0.000  0.136
tot    0.003  0.160  0.241  0.160  0.000  0.001  0.001  0.001  0.005  0.571
 
band    12 # energy    0.61868835 # occ.  2.00000000
 
ion      s     py     pz     px    dxy    dyz    dz2    dxz  x2-y2    tot
    1  0.001  0.003  0.118  0.003  0.000  0.000  0.000  0.000  0.003  0.129
    2  0.001  0.003  0.118  0.003  0.000  0.000  0.000  0.000  0.003  0.129
    3  0.000  0.083  0.012  0.083  0.000  0.001  0.000  0.001  0.000  0.180
    4  0.000  0.065  0.012  0.065  0.000  0.000  0.000  0.000  0.000  0.141
tot    0.002  0.154  0.260  0.154  0.000  0.001  0.000  0.001  0.006  0.578
 
band    13 # energy    0.87568943 # occ.  2.00000000
 
ion      s     py     pz     px    dxy    dyz    dz2    dxz  x2-y2    tot
    1  0.000  0.001  0.003  0.123  0.000  0.000  0.000  0.004  0.000  0.132
    2  0.000  0.123  0.003  0.001  0.000  0.004  0.000  0.000  0.000  0.132
    3  0.000  0.009  0.314  0.009  0.000  0.000  0.000  0.000  0.001  0.334
    4  0.000  0.001  0.002  0.001  0.000  0.000  0.000  0.000  0.000  0.003
tot    0.001  0.134  0.323  0.134  0.000  0.004  0.000  0.004  0.001  0.602
 
band    14 # energy    3.94554499 # occ.  0.00000000
 
ion      s     py     pz     px    dxy    dyz    dz2    dxz  x2-y2    tot
    1  0.004  0.001  0.001  0.118  0.000  0.000  0.000  0.016  0.000  0.141
    2  0.004  0.118  0.001  0.001  0.000  0.016  0.000  0.000  0.000  0.141
    3  0.062  0.005  0.000  0.005  0.000  0.001  0.010  0.001  0.000  0.084
    4  0.001  0.000  0.000  0.000  0.018  0.001  0.000  0.001  0.000  0.019
tot    0.071  0.124  0.002  0.124  0.019  0.017  0.011  0.017  0.000  0.385
 
band    15 # energy    4.23275868 # occ.  0.00000000
 
ion      s     py     pz     px    dxy    dyz    dz2    dxz  x2-y2    tot
    1  0.086  0.006  0.001  0.005  0.014  0.002  0.005  0.000  0.000  0.119
    2  0.086  0.005  0.001  0.006  0.014  0.000  0.005  0.002  0.000  0.119
    3  0.004  0.034  0.000  0.034  0.002  0.012  0.001  0.012  0.000  0.097
    4  0.002  0.033  0.000  0.033  0.001  0.007  0.000  0.007  0.000  0.082
tot    0.178  0.077  0.003  0.077  0.031  0.020  0.011  0.020  0.000  0.417
 
band    16 # energy    4.37555300 # occ.  0.00000000
 
ion      s     py     pz     px    dxy    dyz    dz2    dxz  x2-y2    tot
    1  0.093  0.001  0.000  0.003  0.016  0.000  0.005  0.000  0.000  0.118
    2  0.093  0.003  0.000  0.001  0.016  0.000  0.005  0.000  0.000  0.118
    3  0.000  0.042  0.007  0.042  0.000  0.013  0.000  0.013  0.000  0.117
    4  0.000  0.029  0.005  0.029  0.000  0.008  0.000  0.008  0.000  0.079
tot    0.186  0.076  0.013  0.076  0.031  0.021  0.010  0.021  0.000  0.433
 
band    17 # energy    4.79225211 # occ.  0.00000000
 
ion      s     py     pz     px    dxy    dyz    dz2    dxz  x2-y2    tot
    1  0.006  0.085  0.001  0.000  0.001  0.019  0.001  0.000  0.000  0.113
    2  0.006  0.000  0.001  0.085  0.001  0.000  0.001  0.019  0.000  0.113
    3  0.000  0.008  0.000  0.008  0.035  0.000  0.000  0.000  0.000  0.052
    4  0.059  0.000  0.000  0.000  0.000  0.000  0.006  0.000  0.000  0.067
tot    0.070  0.094  0.003  0.094  0.038  0.020  0.007  0.020  0.000  0.345
 
band    18 # energy   10.64998731 # occ.  0.00000000
 
ion      s     py     pz     px    dxy    dyz    dz2    dxz  x2-y2    tot
    1  0.010  0.109  0.033  0.000  0.001  0.002  0.001  0.000  0.011  0.168
    2  0.010  0.000  0.033  0.109  0.001  0.000  0.001  0.002  0.011  0.168
    3  0.000  0.000  0.000  0.000  0.000  0.002  0.000  0.002  0.000  0.004
    4  0.000  0.060  0.129  0.060  0.000  0.000  0.000  0.000  0.029  0.280
tot    0.021  0.170  0.196  0.170  0.001  0.004  0.003  0.005  0.051  0.620
 
band    19 # energy   10.78500358 # occ.  0.00000000
 
ion      s     py     pz     px    dxy    dyz    dz2    dxz  x2-y2    tot
    1  0.014  0.011  0.097  0.001  0.001  0.002  0.000  0.000  0.022  0.149
    2  0.014  0.001  0.098  0.011  0.001  0.000  0.000  0.002  0.022  0.149
    3  0.000  0.002  0.000  0.002  0.000  0.007  0.001  0.007  0.000  0.020
    4  0.013  0.132  0.000  0.132  0.000  0.000  0.004  0.000  0.000  0.281
tot    0.042  0.147  0.195  0.147  0.002  0.009  0.005  0.009  0.044  0.598
 
band    20 # energy   11.03758365 # occ.  0.00000000
 
ion      s     py     pz     px    dxy    dyz    dz2    dxz  x2-y2    tot
    1  0.005  0.051  0.087  0.002  0.000  0.018  0.000  0.001  0.006  0.170
    2  0.005  0.002  0.087  0.051  0.000  0.001  0.000  0.018  0.006  0.170
    3  0.000  0.005  0.004  0.005  0.000  0.008  0.000  0.008  0.000  0.031
    4  0.000  0.074  0.110  0.074  0.000  0.002  0.000  0.002  0.001  0.264
tot    0.010  0.132  0.287  0.132  0.000  0.029  0.000  0.029  0.013  0.633
 

 k-point     3 :    0.40909091 0.40909091 0.00000000     weight = 0.02777778

band     1 # energy  -19.29105930 # occ.  2.00000000
 
ion      s     py     pz     px    dxy    dyz    dz2    dxz  x2-y2    tot
    1  0.001  0.000  0.000  0.000  0.000  0.000  0.000  0.000  0.000  0.002
    2  0.001  0.000  0.000  0.000  0.000  0.000  0.000  0.000  0.000  0.002
    3  0.000  0.000  0.000  0.000  0.000  0.489  0.000  0.489  0.007  0.985
    4  0.000  0.000  0.000  0.000  0.000  0.000  0.000  0.000  0.000  0.000
tot    0.002  0.000  0.001  0.000  0.000  0.489  0.000  0.489  0.007  0.988
 
band     2 # energy  -19.29082978 # occ.  2.00000000
 
ion      s     py     pz     px    dxy    dyz    dz2    dxz  x2-y2    tot
    1  0.001  0.000  0.000  0.000  0.000  0.000  0.000  0.000  0.000  0.002
    2  0.001  0.000  0.000  0.000  0.000  0.000  0.000  0.000  0.000  0.002
    3  0.000  0.000  0.000  0.000  0.000  0.492  0.001  0.492  0.000  0.985
    4  0.000  0.000  0.000  0.000  0.000  0.000  0.000  0.000  0.000  0.000
tot    0.002  0.000  0.001  0.000  0.000  0.492  0.001  0.492  0.000  0.988
 
band     3 # energy  -19.25926559 # occ.  2.00000000
 
ion      s     py     pz     px    dxy    dyz    dz2    dxz  x2-y2    tot
    1  0.000  0.000  0.000  0.000  0.000  0.000  0.000  0.000  0.000  0.001
    2  0.000  0.000  0.000  0.000  0.000  0.000  0.000  0.000  0.000  0.001
    3  0.000  0.000  0.000  0.000  0.000  0.004  0.000  0.004  0.980  0.987
    4  0.000  0.000  0.000  0.000  0.000  0.000  0.000  0.000  0.000  0.000
tot    0.000  0.000  0.000  0.000  0.000  0.004  0.000  0.004  0.980  0.989
 
band     4 # energy  -19.25445714 # occ.  2.00000000
 
ion      s     py     pz     px    dxy    dyz    dz2    dxz  x2-y2    tot
    1  0.000  0.000  0.000  0.000  0.000  0.000  0.000  0.000  0.000  0.000
    2  0.000  0.000  0.000  0.000  0.000  0.000  0.000  0.000  0.000  0.000
    3  0.000  0.000  0.000  0.000  0.000  0.000  0.986  0.000  0.000  0.987
    4  0.000  0.000  0.000  0.000  0.000  0.000  0.000  0.000  0.000  0.000
tot    0.000  0.000  0.000  0.000  0.000  0.000  0.986  0.000  0.000  0.987
 
band     5 # energy  -19.25378133 # occ.  2.00000000
 
ion      s     py     pz     px    dxy    dyz    dz2    dxz  x2-y2    tot
    1  0.000  0.000  0.000  0.000  0.000  0.000  0.000  0.000  0.000  0.000
    2  0.000  0.000  0.000  0.000  0.000  0.000  0.000  0.000  0.000  0.000
    3  0.000  0.000  0.000  0.000  0.986  0.000  0.000  0.000  0.000  0.986
    4  0.000  0.000  0.000  0.000  0.000  0.000  0.000  0.000  0.000  0.000
tot    0.000  0.000  0.000  0.000  0.986  0.000  0.000  0.000  0.000  0.987
 
band     6 # energy   -7.65796119 # occ.  2.00000000
 
ion      s     py     pz     px    dxy    dyz    dz2    dxz  x2-y2    tot
    1  0.019  0.025  0.000  0.004  0.000  0.004  0.000  0.001  0.000  0.052
    2  0.019  0.004  0.000  0.025  0.000  0.001  0.000  0.004  0.000  0.052
    3  0.127  0.001  0.000  0.001  0.000  0.000  0.000  0.000  0.000  0.129
    4  0.472  0.000  0.000  0.000  0.000  0.000  0.000  0.000  0.000  0.473
tot    0.636  0.030  0.001  0.030  0.000  0.005  0.000  0.005  0.000  0.706
 
band     7 # energy   -7.36703423 # occ.  2.00000000
 
ion      s     py     pz     px    dxy    dyz    dz2    dxz  x2-y2    tot
    1  0.002  0.007  0.002  0.019  0.000  0.001  0.000  0.003  0.000  0.035
    2  0.002  0.019  0.002  0.007  0.000  0.003  0.000  0.001  0.000  0.035
    3  0.582  0.000  0.000  0.000  0.000  0.000  0.000  0.000  0.000  0.582
    4  0.122  0.000  0.000  0.000  0.000  0.000  0.000  0.000  0.000  0.123
tot    0.708  0.026  0.004  0.026  0.000  0.005  0.000  0.005  0.001  0.775
 
band     8 # energy   -3.49721623 # occ.  2.00000000
 
ion      s     py     pz     px    dxy    dyz    dz2    dxz  x2-y2    tot
    1  0.279  0.000  0.000  0.000  0.001  0.000  0.000  0.000  0.000  0.281
    2  0.279  0.000  0.000  0.000  0.001  0.000  0.000  0.000  0.000  0.281
    3  0.000  0.028  0.004  0.028  0.000  0.002  0.000  0.002  0.000  0.064
    4  0.000  0.036  0.003  0.036  0.000  0.001  0.000  0.001  0.000  0.077
tot    0.558  0.063  0.008  0.063  0.001  0.003  0.000  0.003  0.001  0.702
 
band     9 # energy   -3.17544119 # occ.  2.00000000
 
ion      s     py     pz     px    dxy    dyz    dz2    dxz  x2-y2    tot
    1  0.253  0.004  0.000  0.001  0.001  0.001  0.000  0.001  0.000  0.261
    2  0.253  0.001  0.000  0.004  0.001  0.001  0.000  0.001  0.000  0.261
    3  0.025  0.028  0.000  0.028  0.000  0.002  0.000  0.002  0.000  0.085
    4  0.019  0.039  0.000  0.039  0.000  0.001  0.000  0.001  0.000  0.100
tot    0.550  0.072  0.001  0.072  0.002  0.005  0.000  0.005  0.000  0.707
 
band    10 # energy    0.19072800 # occ.  2.00000000
 
ion      s     py     pz     px    dxy    dyz    dz2    dxz  x2-y2    tot
    1  0.003  0.098  0.006  0.010  0.001  0.002  0.001  0.000  0.000  0.121
    2  0.003  0.010  0.006  0.098  0.001  0.000  0.001  0.002  0.000  0.121
    3  0.000  0.000  0.028  0.000  0.000  0.001  0.000  0.001  0.000  0.029
    4  0.000  0.018  0.226  0.018  0.000  0.000  0.000  0.000  0.001  0.263
tot    0.005  0.127  0.266  0.127  0.001  0.002  0.002  0.002  0.001  0.533
 
band    11 # energy    0.42442839 # occ.  2.00000000
 
ion      s     py     pz     px    dxy    dyz    dz2    dxz  x2-y2    tot
    1  0.002  0.006  0.109  0.010  0.000  0.000  0.000  0.000  0.002  0.129
    2  0.002  0.010  0.109  0.006  0.000  0.000  0.000  0.000  0.002  0.129
    3  0.000  0.085  0.000  0.085  0.000  0.001  0.001  0.001  0.000  0.173
    4  0.001  0.062  0.000  0.062  0.000  0.000  0.000  0.000  0.000  0.126
tot    0.004  0.163  0.219  0.163  0.001  0.001  0.002  0.001  0.004  0.557
 
band    12 # energy    0.70728318 # occ.  2.00000000
 
ion      s     py     pz     px    dxy    dyz    dz2    dxz  x2-y2    tot
    1  0.001  0.011  0.101  0.011  0.000  0.000  0.000  0.000  0.003  0.128
    2  0.001  0.011  0.101  0.011  0.000  0.000  0.000  0.000  0.003  0.128
    3  0.000  0.066  0.044  0.066  0.000  0.000  0.000  0.000  0.001  0.177
    4  0.000  0.052  0.041  0.052  0.000  0.000  0.000  0.000  0.001  0.146
tot    0.002  0.140  0.288  0.140  0.000  0.001  0.000  0.001  0.009  0.580
 
band    13 # energy    0.88784800 # occ.  2.00000000
 
ion      s     py     pz     px    dxy    dyz    dz2    dxz  x2-y2    tot
    1  0.000  0.007  0.016  0.100  0.000  0.000  0.000  0.004  0.000  0.128
    2  0.000  0.100  0.016  0.007  0.000  0.004  0.000  0.000  0.000  0.128
    3  0.000  0.033  0.241  0.033  0.000  0.000  0.000  0.000  0.000  0.309
    4  0.000  0.006  0.015  0.006  0.000  0.000  0.000  0.000  0.000  0.027
tot    0.001  0.146  0.287  0.146  0.000  0.005  0.001  0.005  0.000  0.592
 
band    14 # energy    4.06414681 # occ.  0.00000000
 
ion      s     py     pz     px    dxy    dyz    dz2    dxz  x2-y2    tot
    1  0.034  0.012  0.001  0.072  0.003  0.002  0.001  0.010  0.000  0.136
    2  0.034  0.072  0.001  0.012  0.003  0.010  0.001  0.002  0.000  0.136
    3  0.035  0.021  0.000  0.021  0.003  0.005  0.005  0.005  0.000  0.096
    4  0.005  0.004  0.000  0.004  0.010  0.003  0.001  0.003  0.000  0.030
tot    0.107  0.110  0.001  0.110  0.019  0.021  0.008  0.021  0.000  0.397
 
band    15 # energy    4.36823449 # occ.  0.00000000
 
ion      s     py     pz     px    dxy    dyz    dz2    dxz  x2-y2    tot
    1  0.054  0.002  0.005  0.046  0.010  0.001  0.003  0.005  0.000  0.128
    2  0.054  0.046  0.005  0.002  0.010  0.005  0.003  0.001  0.000  0.128
    3  0.029  0.013  0.000  0.013  0.000  0.007  0.005  0.007  0.000  0.075
    4  0.000  0.037  0.000  0.037  0.009  0.003  0.000  0.003  0.000  0.090
tot    0.138  0.098  0.011  0.098  0.030  0.016  0.012  0.016  0.001  0.420
 
band    16 # energy    4.77752461 # occ.  0.00000000
 
ion      s     py     pz     px    dxy    dyz    dz2    dxz  x2-y2    tot
    1  0.089  0.004  0.000  0.009  0.015  0.000  0.004  0.000  0.000  0.122
    2  0.089  0.009  0.000  0.004  0.015  0.000  0.004  0.000  0.000  0.122
    3  0.000  0.039  0.023  0.039  0.000  0.013  0.000  0.013  0.000  0.126
    4  0.000  0.029  0.017  0.029  0.000  0.007  0.000  0.007  0.000  0.089
tot    0.178  0.080  0.040  0.080  0.031  0.021  0.008  0.021  0.000  0.459
 
band    17 # energy    5.12348730 # occ.  0.00000000
 
ion      s     py     pz     px    dxy    dyz    dz2    dxz  x2-y2    tot
    1  0.009  0.078  0.006  0.002  0.002  0.017  0.001  0.001  0.000  0.116
    2  0.009  0.002  0.006  0.078  0.002  0.001  0.001  0.017  0.000  0.116
    3  0.001  0.019  0.000  0.019  0.033  0.000  0.000  0.000  0.000  0.074
    4  0.057  0.000  0.000  0.000  0.000  0.000  0.006  0.000  0.000  0.064
tot    0.075  0.099  0.012  0.099  0.037  0.019  0.008  0.019  0.000  0.369
 
band    18 # energy   10.06945218 # occ.  0.00000000
 
ion      s     py     pz     px    dxy    dyz    dz2    dxz  x2-y2    tot
    1  0.015  0.094  0.039  0.001  0.001  0.000  0.004  0.000  0.012  0.167
    2  0.015  0.001  0.039  0.094  0.001  0.000  0.004  0.000  0.012  0.167
    3  0.000  0.000  0.001  0.000  0.000  0.002  0.000  0.002  0.000  0.005
    4  0.000  0.068  0.081  0.068  0.000  0.001  0.000  0.001  0.038  0.257
tot    0.031  0.164  0.160  0.164  0.001  0.003  0.008  0.003  0.062  0.597
 