<?xml version="1.0" encoding="ISO-8859-1"?>
<modeling>
 <generator>
  <i name="program" type="string">vasp </i>
  <i name="version" type="string">5.4.4.18Apr17-6-g9f103f2a35  </i>
  <i name="subversion" type="string">(build Dec 22 2021 20:00:30) complex            parallel </i>
  <i name="platform" type="string">LinuxIFC </i>
  <i name="date" type="string">2019 05 21 </i>
  <i name="time" type="string">00:51:46 </i>
 </generator>
 <incar>
  <i type="string" name="SYSTEM"> Ga2BiAs</i>
  <i type="string" name="PREC">accurate</i>
  <i type="int" name="ICHARG">    11</i>
  <i name="EDIFF">      0.00001000</i>
  <i name="EDIFFG">     -0.01000000</i>
  <i name="ENCUT">    500.00000000</i>
  <i type="int" name="ISMEAR">     0</i>
  <i name="SIGMA">      0.05000000</i>
  <i type="logical" name="LWAVE"> T  </i>
  <i type="logical" name="LCHARG"> F  </i>
  <i type="int" name="LORBIT">    11</i>
  <v type="int" name="KPOINT_BSE">    -1     0     0     0</v>
 </incar>
 <structure name="primitive_cell" >
  <crystal>
   <varray name="basis" >
    <v>       4.30014086       0.00000000       0.00000000 </v>
    <v>       0.00000000       4.30014086       0.00000000 </v>
    <v>       0.00000000       0.00000000       6.14586115 </v>
   </varray>
   <i name="volume">    113.64441771 </i>
   <varray name="rec_basis" >
    <v>       0.23255052       0.00000000       0.00000000 </v>
    <v>       0.00000000       0.23255052       0.00000000 </v>
    <v>       0.00000000       0.00000000       0.16271113 </v>
   </varray>
  </crystal>
  <varray name="positions" >
   <v>      -0.50000000       0.00000000      -0.27426398 </v>
   <v>      -0.50000000      -0.50000000      -0.50000000 </v>
   <v>       0.00000000       0.00000000       0.00000000 </v>
   <v>       0.00000000      -0.50000000       0.27426400 </v>
  </varray>
 </structure>
 <varray name="primitive_index" >
  <v type="int" >        1 </v>
  <v type="int" >        4 </v>
  <v type="int" >        3 </v>
  <v type="int" >        2 </v>
 </varray>
 <kpoints>
  <generation param="listgenerated">
   <i name="divisions" type="int">      12 </i>
   <v>       0.50000000       0.50000000       0.00000000 </v>
   <v>       0.00000000       0.00000000       0.00000000 </v>
   <v>       0.00000000       0.00000000       0.50000000 </v>
   <v>       0.00000000       0.50000000       0.50000000 </v>
  </generation>
  <varray name="kpointlist" >
   <v>       0.50000000       0.50000000       0.00000000 </v>
   <v>       0.45454545       0.45454545       0.00000000 </v>
   <v>       0.40909091       0.40909091       0.00000000 </v>
   <v>       0.36363636       0.36363636       0.00000000 </v>
   <v>       0.31818182       0.31818182       0.00000000 </v>
   <v>       0.27272727       0.27272727       0.00000000 </v>
   <v>       0.22727273       0.22727273       0.00000000 </v>
   <v>       0.18181818       0.18181818       0.00000000 </v>
   <v>       0.13636364       0.13636364       0.00000000 </v>
   <v>       0.09090909       0.09090909       0.00000000 </v>
   <v>       0.04545455       0.04545455       0.00000000 </v>
   <v>       0.00000000       0.00000000       0.00000000 </v>
   <v>       0.00000000       0.00000000       0.00000000 </v>
   <v>       0.00000000       0.00000000       0.04545455 </v>
   <v>       0.00000000       0.00000000       0.09090909 </v>
   <v>       0.00000000       0.00000000       0.13636364 </v>
   <v>       0.00000000       0.00000000       0.18181818 </v>
   <v>       0.00000000       0.00000000       0.22727273 </v>
   <v>       0.00000000       0.00000000       0.27272727 </v>
   <v>       0.00000000       0.00000000       0.31818182 </v>
   <v>       0.00000000       0.00000000       0.36363636 </v>
   <v>       0.00000000       0.00000000       0.40909091 </v>
   <v>       0.00000000       0.00000000       0.45454545 </v>
   <v>       0.00000000       0.00000000       0.50000000 </v>
   <v>       0.00000000       0.00000000       0.50000000 </v>
   <v>       0.00000000       0.04545455       0.50000000 </v>
   <v>       0.00000000       0.09090909       0.50000000 </v>
   <v>       0.00000000       0.13636364       0.50000000 </v>
   <v>       0.00000000       0.18181818       0.50000000 </v>
   <v>       0.00000000       0.22727273       0.50000000 </v>
   <v>       0.00000000       0.27272727       0.50000000 </v>
   <v>       0.00000000       0.31818182       0.50000000 </v>
   <v>       0.00000000       0.36363636       0.50000000 </v>
   <v>       0.00000000       0.40909091       0.50000000 </v>
   <v>       0.00000000       0.45454545       0.50000000 </v>
   <v>       0.00000000       0.50000000       0.50000000 </v>
  </varray>
  <varray name="weights" >
   <v>       0.02777778 </v>
   <v>       0.02777778 </v>
   <v>       0.02777778 </v>
   <v>       0.02777778 </v>
   <v>       0.02777778 </v>
   <v>       0.02777778 </v>
   <v>       0.02777778 </v>
   <v>       0.02777778 </v>
   <v>       0.02777778 </v>
   <v>       0.02777778 </v>
   <v>       0.02777778 </v>
   <v>       0.02777778 </v>
   <v>       0.02777778 </v>
   <v>       0.02777778 </v>
   <v>       0.02777778 </v>
   <v>       0.02777778 </v>
   <v>       0.02777778 </v>
   <v>       0.02777778 </v>
   <v>       0.02777778 </v>
   <v>       0.02777778 </v>
   <v>       0.02777778 </v>
   <v>       0.02777778 </v>
   <v>       0.02777778 </v>
   <v>       0.02777778 </v>
   <v>       0.02777778 </v>
   <v>       0.02777778 </v>
   <v>       0.02777778 </v>
   <v>       0.02777778 </v>
   <v>       0.02777778 </v>
   <v>       0.02777778 </v>
   <v>       0.02777778 </v>
   <v>       0.02777778 </v>
   <v>       0.02777778 </v>
   <v>       0.02777778 </v>
   <v>       0.02777778 </v>
   <v>       0.02777778 </v>
  </varray>
 </kpoints>
 <parameters>
  <separator name="general" >
   <i type="string" name="SYSTEM">Ga2BiAs</i>
   <i type="logical" name="LCOMPAT"> F  </i>
  </separator>
  <separator name="electronic" >
   <i type="string" name="PREC">accura</i>
   <i name="ENMAX">    500.00000000</i>
   <i name="ENAUG">    462.75800000</i>
   <i name="EDIFF">      0.00001000</i>
   <i type="int" name="IALGO">    38</i>
   <i type="int" name="IWAVPR">    10</i>
   <i type="int" name="NBANDS">    20</i>
   <i name="NELECT">     26.00000000</i>
   <i type="int" name="TURBO">     0</i>
   <i type="int" name="IRESTART">     0</i>
   <i type="int" name="NREBOOT">     0</i>
   <i type="int" name="NMIN">     0</i>
   <i name="EREF">      0.00000000</i>
   <separator name="electronic smearing" >
    <i type="int" name="ISMEAR">     0</i>
    <i name="SIGMA">      0.05000000</i>
    <i name="KSPACING">      0.50000000</i>
    <i type="logical" name="KGAMMA"> T  </i>
   </separator>
   <separator name="electronic projectors" >
    <i type="logical" name="LREAL"> F  </i>
    <v name="ROPT">      0.00000000      0.00000000      0.00000000</v>
    <i type="int" name="LMAXPAW">  -100</i>
    <i type="int" name="LMAXMIX">     2</i>
    <i type="logical" name="NLSPLINE"> F  </i>
   </separator>
   <separator name="electronic startup" >
    <i type="int" name="ISTART">     1</i>
    <i type="int" name="ICHARG">    11</i>
    <i type="int" name="INIWAV">     1</i>
   </separator>
   <separator name="electronic spin" >
    <i type="int" name="ISPIN">     1</i>
    <i type="logical" name="LNONCOLLINEAR"> F  </i>
    <v name="MAGMOM">      1.00000000      1.00000000      1.00000000      1.00000000</v>
    <i name="NUPDOWN">     -1.00000000</i>
    <i type="logical" name="LSORBIT"> F  </i>
    <v name="SAXIS">      0.00000000      0.00000000      1.00000000</v>
    <i type="logical" name="LSPIRAL"> F  </i>
    <v name="QSPIRAL">      0.00000000      0.00000000      0.00000000</v>
    <i type="logical" name="LZEROZ"> F  </i>
   </separator>
   <separator name="electronic exchange-correlation" >
    <i type="logical" name="LASPH"> F  </i>
    <i type="logical" name="LMETAGGA"> F  </i>
   </separator>
   <separator name="electronic convergence" >
    <i type="int" name="NELM">    60</i>
    <i type="int" name="NELMDL">     0</i>
    <i type="int" name="NELMIN">     2</i>
    <i name="ENINI">    500.00000000</i>
    <separator name="electronic convergence detail" >
     <i type="logical" name="LDIAG"> T  </i>
     <i type="logical" name="LSUBROT"> F  </i>
     <i name="WEIMIN">      0.00000000</i>
     <i name="EBREAK">      0.00000013</i>
     <i name="DEPER">      0.30000000</i>
     <i type="int" name="NRMM">     4</i>
     <i name="TIME">      0.40000000</i>
    </separator>
   </separator>
   <separator name="electronic mixer" >
    <i name="AMIX">      0.40000000</i>
    <i name="BMIX">      1.00000000</i>
    <i name="AMIN">      0.10000000</i>
    <i name="AMIX_MAG">      1.60000000</i>
    <i name="BMIX_MAG">      1.00000000</i>
    <separator name="electronic mixer details" >
     <i type="int" name="IMIX">     4</i>
     <i type="logical" name="MIXFIRST"> F  </i>
     <i type="int" name="MAXMIX">   -45</i>
     <i name="WC">    100.00000000</i>
     <i type="int" name="INIMIX">     1</i>
     <i type="int" name="MIXPRE">     1</i>
     <i type="int" name="MREMOVE">     5</i>
    </separator>
   </separator>
   <separator name="electronic dipolcorrection" >
    <i type="logical" name="LDIPOL"> F  </i>
    <i type="logical" name="LMONO"> F  </i>
    <i type="int" name="IDIPOL">     0</i>
    <i name="EPSILON">      1.00000000</i>
    <v name="DIPOL">   -100.00000000   -100.00000000   -100.00000000</v>
    <i name="EFIELD">      0.00000000</i>
   </separator>
  </separator>
  <separator name="grids" >
   <i type="int" name="NGX">    32</i>
   <i type="int" name="NGY">    32</i>
   <i type="int" name="NGZ">    48</i>
   <i type="int" name="NGXF">    64</i>
   <i type="int" name="NGYF">    64</i>
   <i type="int" name="NGZF">    96</i>
   <i type="logical" name="ADDGRID"> F  </i>
  </separator>
  <separator name="ionic" >
   <i type="int" name="NSW">     0</i>
   <i type="int" name="IBRION">    -1</i>
   <i type="int" name="MDALGO">     0</i>
   <i type="int" name="ISIF">     2</i>
   <i name="PSTRESS">      0.00000000</i>
   <i name="EDIFFG">     -0.01000000</i>
   <i type="int" name="NFREE">     0</i>
   <i name="POTIM">      0.50000000</i>
   <i name="SMASS">     -3.00000000</i>
   <i name="SCALEE">      1.00000000</i>
  </separator>
  <separator name="ionic md" >
   <i name="TEBEG">      0.00010000</i>
   <i name="TEEND">      0.00010000</i>
   <i type="int" name="NBLOCK">     1</i>
   <i type="int" name="KBLOCK">     1</i>
   <i type="int" name="NPACO">   256</i>
   <i name="APACO">     16.00000000</i>
  </separator>
  <separator name="symmetry" >
   <i type="int" name="ISYM">     2</i>
   <i name="SYMPREC">      0.00001000</i>
  </separator>
  <separator name="dos" >
   <i type="int" name="LORBIT">    11</i>
   <v name="RWIGS">     -1.00000000     -1.00000000     -1.00000000</v>
   <i type="int" name="NEDOS">   301</i>
   <i name="EMIN">     10.00000000</i>
   <i name="EMAX">    -10.00000000</i>
   <i name="EFERMI">      0.00000000</i>
  </separator>
  <separator name="writing" >
   <i type="int" name="NWRITE">     2</i>
   <i type="logical" name="LWAVE"> T  </i>
   <i type="logical" name="LDOWNSAMPLE"> F  </i>
   <i type="logical" name="LCHARG"> F  </i>
   <i type="logical" name="LPARD"> F  </i>
   <i type="logical" name="LVTOT"> F  </i>
   <i type="logical" name="LVHAR"> F  </i>
   <i type="logical" name="LELF"> F  </i>
   <i type="logical" name="LOPTICS"> F  </i>
   <v name="STM">      0.00000000      0.00000000      0.00000000      0.00000000      0.00000000      0.00000000      0.00000000</v>
  </separator>
  <separator name="performance" >
   <i type="int" name="NPAR">     4</i>
   <i type="int" name="NSIM">     4</i>
   <i type="int" name="NBLK">    -1</i>
   <i type="logical" name="LPLANE"> T  </i>
   <i type="logical" name="LSCALAPACK"> T  </i>
   <i type="logical" name="LSCAAWARE"> F  </i>
   <i type="logical" name="LSCALU"> F  </i>
   <i type="logical" name="LASYNC"> F  </i>
   <i type="logical" name="LORBITALREAL"> F  </i>
  </separator>
  <separator name="miscellaneous" >
   <i type="int" name="IDIOT">     3</i>
   <i type="int" name="ISPECIAL">     0</i>
   <i type="logical" name="LMUSIC"> F  </i>
   <v name="POMASS">     69.72300000    208.98000000     74.92200000</v>
   <v name="DARWINR">      0.00000000      0.00000000      0.00000000</v>
   <v name="DARWINV">      1.00000000      1.00000000      1.00000000</v>
   <i type="logical" name="LCORR"> T  </i>
  </separator>
  <i type="logical" name="GGA_COMPAT"> T  </i>
  <i type="logical" name="LBERRY"> F  </i>
  <i type="int" name="ICORELEVEL">     0</i>
  <i type="logical" name="LDAU"> F  </i>
  <i type="int" name="I_CONSTRAINED_M">     0</i>
  <separator name="electronic exchange-correlation" >
   <i type="string" name="GGA">--</i>
   <i type="int" name="VOSKOWN">     0</i>
   <i type="logical" name="LHFCALC"> F  </i>
   <i type="string" name="PRECFOCK"></i>
   <i type="logical" name="LSYMGRAD"> F  </i>
   <i type="logical" name="LHFONE"> F  </i>
   <i type="logical" name="LRHFCALC"> F  </i>
   <i type="logical" name="LTHOMAS"> F  </i>
   <i type="logical" name="LMODELHF"> F  </i>
   <i name="ENCUT4O">     -1.00000000</i>
   <i type="int" name="EXXOEP">     0</i>
   <i type="int" name="FOURORBIT">     0</i>
   <i name="AEXX">      0.00000000</i>
   <i name="HFALPHA">      0.00000000</i>
   <i name="MCALPHA">      0.00000000</i>
   <i name="ALDAX">      1.00000000</i>
   <i name="AGGAX">      1.00000000</i>
   <i name="ALDAC">      1.00000000</i>
   <i name="AGGAC">      1.00000000</i>
   <i type="int" name="NKREDX">     1</i>
   <i type="int" name="NKREDY">     1</i>
   <i type="int" name="NKREDZ">     1</i>
   <i type="logical" name="SHIFTRED"> F  </i>
   <i type="logical" name="ODDONLY"> F  </i>
   <i type="logical" name="EVENONLY"> F  </i>
   <i type="int" name="LMAXFOCK">     0</i>
   <i type="int" name="NMAXFOCKAE">     0</i>
   <i type="logical" name="LFOCKAEDFT"> F  </i>
   <i name="HFSCREEN">      0.00000000</i>
   <i name="HFSCREENC">      0.00000000</i>
   <i type="int" name="NBANDSGWLOW">     0</i>
  </separator>
  <separator name="vdW DFT" >
   <i type="logical" name="LUSE_VDW"> F  </i>
   <i name="Zab_VDW">     -0.84910000</i>
   <i name="PARAM1">      0.12340000</i>
   <i name="PARAM2">      1.00000000</i>
   <i name="PARAM3">      0.00000000</i>
  </separator>
  <separator name="model GW" >
   <i type="int" name="MODEL_GW">     0</i>
   <i name="MODEL_EPS0">     17.04666266</i>
   <i name="MODEL_ALPHA">      1.00000000</i>
  </separator>
  <separator name="linear response parameters" >
   <i type="logical" name="LEPSILON"> F  </i>
   <i type="logical" name="LRPA"> F  </i>
   <i type="logical" name="LNABLA"> F  </i>
   <i type="logical" name="LVEL"> F  </i>
   <i type="int" name="KINTER">     0</i>
   <i name="CSHIFT">      0.10000000</i>
   <i name="OMEGAMAX">     -1.00000000</i>
   <i name="DEG_THRESHOLD">      0.00200000</i>
   <i name="RTIME">     -0.10000000</i>
   <i name="WPLASMAI">      0.00000000</i>
   <v name="DFIELD">      0.00000000      0.00000000      0.00000000</v>
   <v name="WPLASMA">      0.00000000      0.00000000      0.00000000      0.00000000      0.00000000      0.00000000      0.00000000      0.00000000      0.00000000</v>
  </separator>
  <separator name="orbital magnetization" >
   <i type="logical" name="NUCIND"> F  </i>
   <v name="MAGPOS">      0.00000000      0.00000000      0.00000000</v>
   <i type="logical" name="LNICSALL"> T  </i>
   <i type="logical" name="ORBITALMAG"> F  </i>
   <i type="logical" name="LMAGBLOCH"> F  </i>
   <i type="logical" name="LCHIMAG"> F  </i>
   <i type="logical" name="LGAUGE"> T  </i>
   <i type="int" name="MAGATOM">     0</i>
   <v name="MAGDIPOL">      0.00000000      0.00000000      0.00000000</v>
   <v name="AVECCONST">      0.00000000      0.00000000      0.00000000</v>
  </separator>
  <separator name="response functions" >
   <i type="logical" name="LADDER"> F  </i>
   <i type="logical" name="LRPAFORCE"> F  </i>
   <i type="logical" name="LFXC"> F  </i>
   <i type="logical" name="LHARTREE"> T  </i>
   <i type="int" name="IBSE">     0</i>
   <v type="int" name="KPOINT">    -1     0     0     0</v>
   <i type="logical" name="LTCTE"> F  </i>
   <i type="logical" name="LTETE"> F  </i>
   <i type="logical" name="LTRIPLET"> F  </i>
   <i type="logical" name="LFXCEPS"> F  </i>
   <i type="logical" name="LFXHEG"> F  </i>
   <i type="int" name="NATURALO">     2</i>
   <i type="logical" name="L2ORDER"> F  </i>
   <i type="logical" name="LMP2LT"> F  </i>
   <i type="logical" name="LUSEW"> F  </i>
   <i name="ENCUTGW">     -2.00000000</i>
   <i name="ENCUTGWSOFT">     -2.00000000</i>
   <i name="ENCUTLF">     -1.00000000</i>
   <i type="int" name="LMAXMP2">    -1</i>
   <i name="SCISSOR">      0.00000000</i>
   <i type="int" name="NOMEGA">     0</i>
   <i type="int" name="NOMEGAR">     0</i>
   <i type="int" name="NBANDSGW">    -1</i>
   <i type="int" name="NBANDSO">    -1</i>
   <i type="int" name="NBANDSV">    -1</i>
   <i type="int" name="NELM">     1</i>
   <i type="int" name="NELMHF">     1</i>
   <i type="int" name="DIM">     3</i>
   <i type="int" name="ANTIRES">     0</i>
   <i name="OMEGAMAX">    -30.00000000</i>
   <i name="OMEGAMIN">    -30.00000000</i>
   <i name="OMEGATL">   -200.00000000</i>
   <i type="int" name="OMEGAGRID">   140</i>
   <i name="CSHIFT">     -0.10000000</i>
   <i type="logical" name="SELFENERGY"> F  </i>
   <i type="logical" name="LSPECTRAL"> F  </i>
   <i type="logical" name="LSPECTRALGW"> F  </i>
   <i type="logical" name="LSINGLES"> F  </i>
   <i type="logical" name="LFERMIGW"> F  </i>
   <i type="logical" name="ODDONLYGW"> F  </i>
   <i type="logical" name="EVENONLYGW"> F  </i>
   <i type="int" name="NKREDLFX">     1</i>
   <i type="int" name="NKREDLFY">     1</i>
   <i type="int" name="NKREDLFZ">     1</i>
   <i type="int" name="MAXMEM">  2800</i>
   <i type="int" name="TELESCOPE">     0</i>
   <i type="int" name="TAUPAR">     1</i>
   <i type="int" name="OMEGAPAR">    -1</i>
   <i name="LAMBDA">      1.00000000</i>
  </separator>
  <separator name="External order field" >
   <i name="OFIELD_KAPPA">      0.00000000</i>
   <v name="OFIELD_K">      0.00000000      0.00000000      0.00000000</v>
   <i name="OFIELD_Q6_NEAR">      0.00000000</i>
   <i name="OFIELD_Q6_FAR">      0.00000000</i>
   <i name="OFIELD_A">      0.00000000</i>
  </separator>
 </parameters>
 <atominfo>
  <atoms>       4 </atoms>
  <types>       3 </types>
  <array name="atoms" >
   <dimension dim="1">ion</dimension>
   <field type="string">element</field>
   <field type="int">atomtype</field>
   <set>
    <rc><c>Ga</c><c>   1</c></rc>
    <rc><c>Ga</c><c>   1</c></rc>
    <rc><c>Bi</c><c>   2</c></rc>
    <rc><c>As</c><c>   3</c></rc>
   </set>
  </array>
  <array name="atomtypes" >
   <dimension dim="1">type</dimension>
   <field type="int">atomspertype</field>
   <field type="string">element</field>
   <field>mass</field>
   <field>valence</field>
   <field type="string">pseudopotential</field>
   <set>
    <rc><c>   2</c><c>Ga</c><c>     69.72300000</c><c>      3.00000000</c><c>  PAW_PBE Ga 08Apr2002                  </c></rc>
    <rc><c>   1</c><c>Bi</c><c>    208.98000000</c><c>     15.00000000</c><c>  PAW_PBE Bi_d 06Sep2000                </c></rc>
    <rc><c>   1</c><c>As</c><c>     74.92200000</c><c>      5.00000000</c><c>  PAW_PBE As 22Sep2009                  </c></rc>
   </set>
  </array>
 </atominfo>
 <structure name="initialpos" >
  <crystal>
   <varray name="basis" >
    <v>       4.30014086       0.00000000       0.00000000 </v>
    <v>       0.00000000       4.30014086       0.00000000 </v>
    <v>       0.00000000       0.00000000       6.14586115 </v>
   </varray>
   <i name="volume">    113.64441771 </i>
   <varray name="rec_basis" >
    <v>       0.23255052       0.00000000       0.00000000 </v>
    <v>       0.00000000       0.23255052       0.00000000 </v>
    <v>       0.00000000       0.00000000       0.16271113 </v>
   </varray>
  </crystal>
  <varray name="positions" >
   <v>       0.50000000       0.00000000       0.72573602 </v>
   <v>       0.00000000       0.50000000       0.27426400 </v>
   <v>       0.00000000       0.00000000       0.00000000 </v>
   <v>       0.50000000       0.50000000       0.50000000 </v>
  </varray>
 </structure>
 <calculation>
  <scstep>
   <time name="dav">    0.69    0.69</time>
   <time name="total">    0.89    1.05</time>
   <energy>
    <i name="alphaZ">     64.20128509 </i>
    <i name="ewald">  -1439.91766544 </i>
    <i name="hartreedc">   -753.77007294 </i>
    <i name="XCdc">     -0.92234579 </i>
    <i name="pawpsdc">   2420.17782075 </i>
    <i name="pawaedc">  -2324.78632130 </i>
    <i name="eentropy">     -0.00618845 </i>
    <i name="bandstr">   -220.18615711 </i>
    <i name="atom">   2247.12322143 </i>
    <i name="e_fr_energy">     -8.08642377 </i>
    <i name="e_wo_entrp">     -8.08023532 </i>
    <i name="e_0_energy">     -8.08332955 </i>
   </energy>
  </scstep>
  <scstep>
   <time name="dav">    0.73    0.73</time>
   <time name="total">    0.73    0.73</time>
   <energy>
    <i name="e_fr_energy">     -9.86289964 </i>
    <i name="e_wo_entrp">     -9.85915289 </i>
    <i name="e_0_energy">     -9.86102626 </i>
   </energy>
  </scstep>
  <scstep>
   <time name="dav">    0.71    0.71</time>
   <time name="total">    0.71    0.71</time>
   <energy>
    <i name="e_fr_energy">     -9.90388543 </i>
    <i name="e_wo_entrp">     -9.90017511 </i>
    <i name="e_0_energy">     -9.90203027 </i>
   </energy>
  </scstep>
  <scstep>
   <time name="dav">    0.61    0.61</time>
   <time name="total">    0.61    0.61</time>
   <energy>
    <i name="e_fr_energy">     -9.90471127 </i>
    <i name="e_wo_entrp">     -9.90100112 </i>
    <i name="e_0_energy">     -9.90285620 </i>
   </energy>
  </scstep>
  <scstep>
   <time name="dav">    0.61    0.62</time>
   <time name="total">    0.61    0.62</time>
   <energy>
    <i name="e_fr_energy">     -9.90474184 </i>
    <i name="e_wo_entrp">     -9.90103170 </i>
    <i name="e_0_energy">     -9.90288677 </i>
   </energy>
  </scstep>
  <scstep>
   <time name="dav">    0.45    0.45</time>
   <time name="total">    0.45    0.45</time>
   <energy>
    <i name="alphaZ">     64.20128509 </i>
    <i name="ewald">  -1439.91766544 </i>
    <i name="hartreedc">   -753.77007294 </i>
    <i name="XCdc">     -0.92234579 </i>
    <i name="pawpsdc">   2420.17782075 </i>
    <i name="pawaedc">  -2324.78632130 </i>
    <i name="eentropy">     -0.00371014 </i>
    <i name="bandstr">   -222.00695376 </i>
    <i name="atom">   2247.12322143 </i>
    <i name="e_fr_energy">     -9.90474212 </i>
    <i name="e_wo_entrp">     -9.90103197 </i>
    <i name="e_0_energy">     -9.90288704 </i>
   </energy>
  </scstep>
  <structure>
   <crystal>
    <varray name="basis" >
     <v>       4.30014086       0.00000000       0.00000000 </v>
     <v>       0.00000000       4.30014086       0.00000000 </v>
     <v>       0.00000000       0.00000000       6.14586115 </v>
    </varray>
    <i name="volume">    113.64441771 </i>
    <varray name="rec_basis" >
     <v>       0.23255052       0.00000000       0.00000000 </v>
     <v>       0.00000000       0.23255052       0.00000000 </v>
     <v>       0.00000000       0.00000000       0.16271113 </v>
    </varray>
   </crystal>
   <varray name="positions" >
    <v>       0.50000000       0.00000000       0.72573602 </v>
    <v>       0.00000000       0.50000000       0.27426400 </v>
    <v>       0.00000000       0.00000000       0.00000000 </v>
    <v>       0.50000000       0.50000000       0.50000000 </v>
   </varray>
  </structure>
  <varray name="forces" >
   <v>      -0.00000000      -0.00000000      -0.27005626 </v>
   <v>       0.00000000      -0.00000000       0.27005626 </v>
   <v>      -0.00000000      -0.00000000       0.00000000 </v>
   <v>      -0.00000000       0.00000000       0.00000000 </v>
  </varray>
  <varray name="stress" >
   <v>     193.49005005       0.00000000       0.00000000 </v>
   <v>       0.00000000     193.49005005       0.00000000 </v>
   <v>       0.00000000       0.00000000     125.89928313 </v>
  </varray>
  <energy>
   <i name="e_fr_energy">     -9.90474212 </i>
   <i name="e_wo_entrp">     -9.90288704 </i>
   <i name="e_0_energy">     -0.00371014 </i>
  </energy>
  <time name="totalsc">    4.63    5.34</time>
  <eigenvalues>
   <array>
    <dimension dim="1">band</dimension>
    <dimension dim="2">kpoint</dimension>
    <dimension dim="3">spin</dimension>
    <field>eigene</field>
    <field>occ</field>
    <set>
     <set comment="spin 1">
      <set comment="kpoint 1">
       <r>  -19.2916    1.0000 </r>
       <r>  -19.2916    1.0000 </r>
       <r>  -19.2566    1.0000 </r>
       <r>  -19.2546    1.0000 </r>
       <r>  -19.2539    1.0000 </r>
       <r>   -7.4994    1.0000 </r>
       <r>   -7.3026    1.0000 </r>
       <r>   -3.5369    1.0000 </r>
       <r>   -3.5369    1.0000 </r>
       <r>    0.3221    1.0000 </r>
       <r>    0.5890    1.0000 </r>
       <r>    0.5890    1.0000 </r>
       <r>    0.8913    1.0000 </r>
       <r>    3.8700    0.0000 </r>
       <r>    4.2281    0.0000 </r>
       <r>    4.2281    0.0000 </r>
       <r>    4.6665    0.0000 </r>
       <r>   10.9485    0.0000 </r>
       <r>   11.0773    0.0000 </r>
       <r>   11.0773    0.0000 </r>
      </set>
      <set comment="kpoint 2">
       <r>  -19.2915    1.0000 </r>
       <r>  -19.2914    1.0000 </r>
       <r>  -19.2573    1.0000 </r>
       <r>  -19.2544    1.0000 </r>
       <r>  -19.2540    1.0000 </r>
       <r>   -7.5320    1.0000 </r>
       <r>   -7.3303    1.0000 </r>
       <r>   -3.5263    1.0000 </r>
       <r>   -3.4417    1.0000 </r>
       <r>    0.2942    1.0000 </r>
       <r>    0.5412    1.0000 </r>
       <r>    0.6187    1.0000 </r>
       <r>    0.8757    1.0000 </r>
       <r>    3.9455    0.0000 </r>
       <r>    4.2328    0.0000 </r>
       <r>    4.3756    0.0000 </r>
       <r>    4.7923    0.0000 </r>
       <r>   10.6500    0.0000 </r>
       <r>   10.7850    0.0000 </r>
       <r>   11.0376    0.0000 </r>
      </set>
      <set comment="kpoint 3">
       <r>  -19.2911    1.0000 </r>
       <r>  -19.2908    1.0000 </r>
       <r>  -19.2593    1.0000 </r>
       <r>  -19.2545    1.0000 </r>
       <r>  -19.2538    1.0000 </r>
       <r>   -7.6580    1.0000 </r>
       <r>   -7.3670    1.0000 </r>
       <r>   -3.4972    1.0000 </r>
       <r>   -3.1754    1.0000 </r>
       <r>    0.1907    1.0000 </r>
       <r>    0.4244    1.0000 </r>
       <r>    0.7073    1.0000 </r>
       <r>    0.8878    1.0000 </r>
       <r>    4.0641    0.0000 </r>
       <r>    4.3682    0.0000 </r>
       <r>    4.7775    0.0000 </r>
       <r>    5.1235    0.0000 </r>
       <r>   10.0695    0.0000 </r>
       <r>   10.1088    0.0000 </r>
       <r>   10.7153    0.0000 </r>
      </set>
      <set comment="kpoint 4">
       <r>  -19.2904    1.0000 </r>
       <r>  -19.2899    1.0000 </r>
       <r>  -19.2624    1.0000 </r>
       <r>  -19.2551    1.0000 </r>
       <r>  -19.2528    1.0000 </r>
       <r>   -7.8696    1.0000 </r>
       <r>   -7.3817    1.0000 </r>
       <r>   -3.4572    1.0000 </r>
       <r>   -2.7798    1.0000 </r>
       <r>    0.0253    1.0000 </r>
       <r>    0.2931    1.0000 </r>
       <r>    0.8534    1.0000 </r>
       <r>    0.9904    1.0000 </r>
       <r>    4.1465    0.0000 </r>
       <r>    4.6742    0.0000 </r>
       <r>    5.3520    0.0000 </r>
       <r>    5.6251    0.0000 </r>
       <r>    9.2955    0.0000 </r>
       <r>    9.3654    0.0000 </r>
       <r>   10.1949    0.0000 </r>
      </set>
      <set comment="kpoint 5">
       <r>  -19.2896    1.0000 </r>
       <r>  -19.2887    1.0000 </r>
       <r>  -19.2664    1.0000 </r>
       <r>  -19.2560    1.0000 </r>
       <r>  -19.2516    1.0000 </r>
       <r>   -8.1172    1.0000 </r>
       <r>   -7.3873    1.0000 </r>
       <r>   -3.4180    1.0000 </r>
       <r>   -2.2965    1.0000 </r>
       <r>   -0.1333    1.0000 </r>
       <r>    0.1949    1.0000 </r>
       <r>    1.0543    1.0000 </r>
       <r>    1.1775    1.0000 </r>
       <r>    4.2643    0.0000 </r>
       <r>    5.0058    0.0000 </r>
       <r>    6.0083    0.0000 </r>
       <r>    6.2729    0.0000 </r>
       <r>    8.4685    0.0000 </r>
       <r>    8.6380    0.0000 </r>
       <r>    9.5928    0.0000 </r>
      </set>
      <set comment="kpoint 6">
       <r>  -19.2887    1.0000 </r>
       <r>  -19.2873    1.0000 </r>
       <r>  -19.2708    1.0000 </r>
       <r>  -19.2571    1.0000 </r>
       <r>  -19.2503    1.0000 </r>
       <r>   -8.3665    1.0000 </r>
       <r>   -7.3920    1.0000 </r>
       <r>   -3.3930    1.0000 </r>
       <r>   -1.7593    1.0000 </r>
       <r>   -0.2287    1.0000 </r>
       <r>    0.1623    1.0000 </r>
       <r>    1.3058    1.0000 </r>
       <r>    1.4311    1.0000 </r>
       <r>    4.4331    0.0000 </r>
       <r>    5.2528    0.0000 </r>
       <r>    6.5497    0.0000 </r>
       <r>    6.9959    0.0000 </r>
       <r>    7.7311    0.0000 </r>
       <r>    8.0826    0.0000 </r>
       <r>    8.9713    0.0000 </r>
      </set>
      <set comment="kpoint 7">
       <r>  -19.2880    1.0000 </r>
       <r>  -19.2858    1.0000 </r>
       <r>  -19.2751    1.0000 </r>
       <r>  -19.2581    1.0000 </r>
       <r>  -19.2489    1.0000 </r>
       <r>   -8.5972    1.0000 </r>
       <r>   -7.3985    1.0000 </r>
       <r>   -3.3916    1.0000 </r>
       <r>   -1.1986    1.0000 </r>
       <r>   -0.2322    1.0000 </r>
       <r>    0.2181    1.0000 </r>
       <r>    1.6008    1.0000 </r>
       <r>    1.7375    1.0000 </r>
       <r>    4.6288    0.0000 </r>
       <r>    5.2963    0.0000 </r>
       <r>    6.4292    0.0000 </r>
       <r>    6.9157    0.0000 </r>
       <r>    7.9576    0.0000 </r>
       <r>    8.1298    0.0000 </r>
       <r>    8.4514    0.0000 </r>
      </set>
      <set comment="kpoint 8">
       <r>  -19.2879    1.0000 </r>
       <r>  -19.2843    1.0000 </r>
       <r>  -19.2787    1.0000 </r>
       <r>  -19.2592    1.0000 </r>
       <r>  -19.2475    1.0000 </r>
       <r>   -8.7973    1.0000 </r>
       <r>   -7.4072    1.0000 </r>
       <r>   -3.4142    1.0000 </r>
       <r>   -0.6541    1.0000 </r>
       <r>   -0.1408    1.0000 </r>
       <r>    0.3862    1.0000 </r>
       <r>    1.9278    1.0000 </r>
       <r>    2.0830    1.0000 </r>
       <r>    4.6761    0.0000 </r>
       <r>    5.2283    0.0000 </r>
       <r>    5.8296    0.0000 </r>
       <r>    6.3162    0.0000 </r>
       <r>    7.6876    0.0000 </r>
       <r>    8.0376    0.0000 </r>
       <r>    8.7700    0.0000 </r>
      </set>
      <set comment="kpoint 9">
       <r>  -19.2890    1.0000 </r>
       <r>  -19.2831    1.0000 </r>
       <r>  -19.2807    1.0000 </r>
       <r>  -19.2602    1.0000 </r>
       <r>  -19.2464    1.0000 </r>
       <r>   -8.9588    1.0000 </r>
       <r>   -7.4171    1.0000 </r>
       <r>   -3.4517    1.0000 </r>
       <r>   -0.1864    1.0000 </r>
       <r>    0.0251    1.0000 </r>
       <r>    0.6986    1.0000 </r>
       <r>    2.2679    1.0000 </r>
       <r>    2.4475    1.0000 </r>
       <r>    4.3064    0.0000 </r>
       <r>    5.1927    0.0000 </r>
       <r>    5.3851    0.0000 </r>
       <r>    5.7435    0.0000 </r>
       <r>    7.1358    0.0000 </r>
       <r>    7.4195    0.0000 </r>
       <r>    9.5271    0.0000 </r>
      </set>
      <set comment="kpoint 10">
       <r>  -19.2908    1.0000 </r>
       <r>  -19.2821    1.0000 </r>
       <r>  -19.2812    1.0000 </r>
       <r>  -19.2609    1.0000 </r>
       <r>  -19.2455    1.0000 </r>
       <r>   -9.0772    1.0000 </r>
       <r>   -7.4262    1.0000 </r>
       <r>   -3.4908    1.0000 </r>
       <r>    0.1579    1.0000 </r>
       <r>    0.2239    1.0000 </r>
       <r>    1.1462    1.0000 </r>
       <r>    2.5877    1.0000 </r>
       <r>    2.7966    1.0000 </r>
       <r>    3.8144    0.0000 </r>
       <r>    4.6447    0.0000 </r>
       <r>    5.0368    0.0000 </r>
       <r>    5.8046    0.0000 </r>
       <r>    6.6572    0.0000 </r>
       <r>    6.8844    0.0000 </r>
       <r>    9.5457    0.0000 </r>
      </set>
      <set comment="kpoint 11">
       <r>  -19.2922    1.0000 </r>
       <r>  -19.2814    1.0000 </r>
       <r>  -19.2812    1.0000 </r>
       <r>  -19.2614    1.0000 </r>
       <r>  -19.2449    1.0000 </r>
       <r>   -9.1492    1.0000 </r>
       <r>   -7.4327    1.0000 </r>
       <r>   -3.5195    1.0000 </r>
       <r>    0.3799    1.0000 </r>
       <r>    0.3929    1.0000 </r>
       <r>    1.6103    1.0000 </r>
       <r>    2.8313    1.0000 </r>
       <r>    3.0694    0.9729 </r>
       <r>    3.3824    0.0000 </r>
       <r>    4.2629    0.0000 </r>
       <r>    4.5768    0.0000 </r>
       <r>    6.0721    0.0000 </r>
       <r>    6.3163    0.0000 </r>
       <r>    6.5009    0.0000 </r>
       <r>    9.0790    0.0000 </r>
      </set>
      <set comment="kpoint 12">
       <r>  -19.2928    1.0000 </r>
       <r>  -19.2812    1.0000 </r>
       <r>  -19.2812    1.0000 </r>
       <r>  -19.2616    1.0000 </r>
       <r>  -19.2447    1.0000 </r>
       <r>   -9.1734    1.0000 </r>
       <r>   -7.4350    1.0000 </r>
       <r>   -3.5300    1.0000 </r>
       <r>    0.4610    1.0000 </r>
       <r>    0.4610    1.0000 </r>
       <r>    1.8435    1.0000 </r>
       <r>    2.9256    1.0000 </r>
       <r>    3.1778    0.1267 </r>
       <r>    3.1778    0.1267 </r>
       <r>    4.1228    0.0000 </r>
       <r>    4.3912    0.0000 </r>
       <r>    6.1893    0.0000 </r>
       <r>    6.1893    0.0000 </r>
       <r>    6.3567    0.0000 </r>
       <r>    8.8947    0.0000 </r>
      </set>
      <set comment="kpoint 13">
       <r>  -19.2928    1.0000 </r>
       <r>  -19.2812    1.0000 </r>
       <r>  -19.2812    1.0000 </r>
       <r>  -19.2616    1.0000 </r>
       <r>  -19.2447    1.0000 </r>
       <r>   -9.1734    1.0000 </r>
       <r>   -7.4350    1.0000 </r>
       <r>   -3.5300    1.0000 </r>
       <r>    0.4610    1.0000 </r>
       <r>    0.4610    1.0000 </r>
       <r>    1.8435    1.0000 </r>
       <r>    2.9256    1.0000 </r>
       <r>    3.1778    0.1267 </r>
       <r>    3.1778    0.1267 </r>
       <r>    4.1228    0.0000 </r>
       <r>    4.3912    0.0000 </r>
       <r>    6.1893    0.0000 </r>
       <r>    6.1893    0.0000 </r>
       <r>    6.3567    0.0000 </r>
       <r>    8.8947    0.0000 </r>
      </set>
      <set comment="kpoint 14">
       <r>  -19.2928    1.0000 </r>
       <r>  -19.2812    1.0000 </r>
       <r>  -19.2812    1.0000 </r>
       <r>  -19.2616    1.0000 </r>
       <r>  -19.2448    1.0000 </r>
       <r>   -9.1675    1.0000 </r>
       <r>   -7.4502    1.0000 </r>
       <r>   -3.5059    1.0000 </r>
       <r>    0.4670    1.0000 </r>
       <r>    0.4670    1.0000 </r>
       <r>    1.7368    1.0000 </r>
       <r>    3.0257    0.9992 </r>
       <r>    3.1535    0.3247 </r>
       <r>    3.1535    0.3247 </r>
       <r>    4.1248    0.0000 </r>
       <r>    4.4085    0.0000 </r>
       <r>    6.2238    0.0000 </r>
       <r>    6.2238    0.0000 </r>
       <r>    6.3300    0.0000 </r>
       <r>    8.9399    0.0000 </r>
      </set>
      <set comment="kpoint 15">
       <r>  -19.2928    1.0000 </r>
       <r>  -19.2812    1.0000 </r>
       <r>  -19.2812    1.0000 </r>
       <r>  -19.2616    1.0000 </r>
       <r>  -19.2448    1.0000 </r>
       <r>   -9.1497    1.0000 </r>
       <r>   -7.4945    1.0000 </r>
       <r>   -3.4348    1.0000 </r>
       <r>    0.4848    1.0000 </r>
       <r>    0.4849    1.0000 </r>
       <r>    1.4896    1.0000 </r>
       <r>    3.0843    0.9337 </r>
       <r>    3.0843    0.9337 </r>
       <r>    3.2490    0.0008 </r>
       <r>    4.1378    0.0000 </r>
       <r>    4.4562    0.0000 </r>
       <r>    6.2565    0.0000 </r>
       <r>    6.3236    0.0000 </r>
       <r>    6.3236    0.0000 </r>
       <r>    9.0694    0.0000 </r>
      </set>
      <set comment="kpoint 16">
       <r>  -19.2928    1.0000 </r>
       <r>  -19.2812    1.0000 </r>
       <r>  -19.2812    1.0000 </r>
       <r>  -19.2616    1.0000 </r>
       <r>  -19.2448    1.0000 </r>
       <r>   -9.1201    1.0000 </r>
       <r>   -7.5644    1.0000 </r>
       <r>   -3.3203    1.0000 </r>
       <r>    0.5141    1.0000 </r>
       <r>    0.5141    1.0000 </r>
       <r>    1.1865    1.0000 </r>
       <r>    2.9794    1.0000 </r>
       <r>    2.9794    1.0000 </r>
       <r>    3.4964    0.0000 </r>
       <r>    4.1807    0.0000 </r>
       <r>    4.5254    0.0000 </r>
       <r>    6.1522    0.0000 </r>
       <r>    6.4796    0.0000 </r>
       <r>    6.4796    0.0000 </r>
       <r>    9.2679    0.0000 </r>
      </set>
      <set comment="kpoint 17">
       <r>  -19.2928    1.0000 </r>
       <r>  -19.2812    1.0000 </r>
       <r>  -19.2812    1.0000 </r>
       <r>  -19.2615    1.0000 </r>
       <r>  -19.2448    1.0000 </r>
       <r>   -9.0790    1.0000 </r>
       <r>   -7.6552    1.0000 </r>
       <r>   -3.1672    1.0000 </r>
       <r>    0.5538    1.0000 </r>
       <r>    0.5538    1.0000 </r>
       <r>    0.8623    1.0000 </r>
       <r>    2.8505    1.0000 </r>
       <r>    2.8505    1.0000 </r>
       <r>    3.7034    0.0000 </r>
       <r>    4.2838    0.0000 </r>
       <r>    4.6082    0.0000 </r>
       <r>    6.0358    0.0000 </r>
       <r>    6.6808    0.0000 </r>
       <r>    6.6808    0.0000 </r>
       <r>    9.5194    0.0000 </r>
      </set>
      <set comment="kpoint 18">
       <r>  -19.2928    1.0000 </r>
       <r>  -19.2812    1.0000 </r>
       <r>  -19.2812    1.0000 </r>
       <r>  -19.2615    1.0000 </r>
       <r>  -19.2448    1.0000 </r>
       <r>   -9.0265    1.0000 </r>
       <r>   -7.7615    1.0000 </r>
       <r>   -2.9810    1.0000 </r>
       <r>    0.5303    1.0000 </r>
       <r>    0.6028    1.0000 </r>
       <r>    0.6028    1.0000 </r>
       <r>    2.7086    1.0000 </r>
       <r>    2.7086    1.0000 </r>
       <r>    3.8358    0.0000 </r>
       <r>    4.4597    0.0000 </r>
       <r>    4.6994    0.0000 </r>
       <r>    5.9254    0.0000 </r>
       <r>    6.9167    0.0000 </r>
       <r>    6.9167    0.0000 </r>
       <r>   10.5802    0.0000 </r>
      </set>
      <set comment="kpoint 19">
       <r>  -19.2928    1.0000 </r>
       <r>  -19.2812    1.0000 </r>
       <r>  -19.2812    1.0000 </r>
       <r>  -19.2615    1.0000 </r>
       <r>  -19.2448    1.0000 </r>
       <r>   -8.9630    1.0000 </r>
       <r>   -7.8784    1.0000 </r>
       <r>   -2.7667    1.0000 </r>
       <r>    0.1966    1.0000 </r>
       <r>    0.6589    1.0000 </r>
       <r>    0.6589    1.0000 </r>
       <r>    2.5637    1.0000 </r>
       <r>    2.5637    1.0000 </r>
       <r>    3.9142    0.0000 </r>
       <r>    4.6485    0.0000 </r>
       <r>    4.8136    0.0000 </r>
       <r>    5.8382    0.0000 </r>
       <r>    7.1788    0.0000 </r>
       <r>    7.1788    0.0000 </r>
       <r>    9.9939    0.0000 </r>
      </set>
      <set comment="kpoint 20">
       <r>  -19.2928    1.0000 </r>
       <r>  -19.2812    1.0000 </r>
       <r>  -19.2812    1.0000 </r>
       <r>  -19.2614    1.0000 </r>
       <r>  -19.2448    1.0000 </r>
       <r>   -8.8890    1.0000 </r>
       <r>   -8.0012    1.0000 </r>
       <r>   -2.5290    1.0000 </r>
       <r>   -0.1355    1.0000 </r>
       <r>    0.7189    1.0000 </r>
       <r>    0.7189    1.0000 </r>
       <r>    2.4247    1.0000 </r>
       <r>    2.4247    1.0000 </r>
       <r>    3.9700    0.0000 </r>
       <r>    4.7482    0.0000 </r>
       <r>    4.9943    0.0000 </r>
       <r>    5.7892    0.0000 </r>
       <r>    7.4599    0.0000 </r>
       <r>    7.4599    0.0000 </r>
       <r>    9.6926    0.0000 </r>
      </set>
      <set comment="kpoint 21">
       <r>  -19.2928    1.0000 </r>
       <r>  -19.2813    1.0000 </r>
       <r>  -19.2813    1.0000 </r>
       <r>  -19.2614    1.0000 </r>
       <r>  -19.2448    1.0000 </r>
       <r>   -8.8050    1.0000 </r>
       <r>   -8.1263    1.0000 </r>
       <r>   -2.2718    1.0000 </r>
       <r>   -0.4640    1.0000 </r>
       <r>    0.7783    1.0000 </r>
       <r>    0.7783    1.0000 </r>
       <r>    2.3003    1.0000 </r>
       <r>    2.3003    1.0000 </r>
       <r>    4.0167    0.0000 </r>
       <r>    4.7763    0.0000 </r>
       <r>    5.1870    0.0000 </r>
       <r>    5.7839    0.0000 </r>
       <r>    7.7543    0.0000 </r>
       <r>    7.7543    0.0000 </r>
       <r>    9.4603    0.0000 </r>
      </set>
      <set comment="kpoint 22">
       <r>  -19.2928    1.0000 </r>
       <r>  -19.2813    1.0000 </r>
       <r>  -19.2813    1.0000 </r>
       <r>  -19.2614    1.0000 </r>
       <r>  -19.2448    1.0000 </r>
       <r>   -8.7123    1.0000 </r>
       <r>   -8.2500    1.0000 </r>
       <r>   -1.9983    1.0000 </r>
       <r>   -0.7872    1.0000 </r>
       <r>    0.8304    1.0000 </r>
       <r>    0.8304    1.0000 </r>
       <r>    2.2001    1.0000 </r>
       <r>    2.2001    1.0000 </r>
       <r>    4.0560    0.0000 </r>
       <r>    4.7709    0.0000 </r>
       <r>    5.3407    0.0000 </r>
       <r>    5.8105    0.0000 </r>
       <r>    8.0556    0.0000 </r>
       <r>    8.0556    0.0000 </r>
       <r>    9.3230    0.0000 </r>
      </set>
      <set comment="kpoint 23">
       <r>  -19.2928    1.0000 </r>
       <r>  -19.2813    1.0000 </r>
       <r>  -19.2813    1.0000 </r>
       <r>  -19.2614    1.0000 </r>
       <r>  -19.2448    1.0000 </r>
       <r>   -8.6135    1.0000 </r>
       <r>   -8.3680    1.0000 </r>
       <r>   -1.7111    1.0000 </r>
       <r>   -1.1036    1.0000 </r>
       <r>    0.8670    1.0000 </r>
       <r>    0.8670    1.0000 </r>
       <r>    2.1339    1.0000 </r>
       <r>    2.1339    1.0000 </r>
       <r>    4.0839    0.0000 </r>
       <r>    4.7554    0.0000 </r>
       <r>    5.4377    0.0000 </r>
       <r>    5.8429    0.0000 </r>
       <r>    8.3500    0.0000 </r>
       <r>    8.3500    0.0000 </r>
       <r>    9.0986    0.0000 </r>
      </set>
      <set comment="kpoint 24">
       <r>  -19.2928    1.0000 </r>
       <r>  -19.2813    1.0000 </r>
       <r>  -19.2813    1.0000 </r>
       <r>  -19.2614    1.0000 </r>
       <r>  -19.2448    1.0000 </r>
       <r>   -8.5396    1.0000 </r>
       <r>   -8.4484    1.0000 </r>
       <r>   -1.4236    1.0000 </r>
       <r>   -1.4008    1.0000 </r>
       <r>    0.8803    1.0000 </r>
       <r>    0.8803    1.0000 </r>
       <r>    2.1106    1.0000 </r>
       <r>    2.1106    1.0000 </r>
       <r>    4.0941    0.0000 </r>
       <r>    4.7478    0.0000 </r>
       <r>    5.4708    0.0000 </r>
       <r>    5.8568    0.0000 </r>
       <r>    8.5363    0.0000 </r>
       <r>    8.5363    0.0000 </r>
       <r>    8.9094    0.0000 </r>
      </set>
      <set comment="kpoint 25">
       <r>  -19.2928    1.0000 </r>
       <r>  -19.2813    1.0000 </r>
       <r>  -19.2813    1.0000 </r>
       <r>  -19.2614    1.0000 </r>
       <r>  -19.2448    1.0000 </r>
       <r>   -8.5396    1.0000 </r>
       <r>   -8.4484    1.0000 </r>
       <r>   -1.4236    1.0000 </r>
       <r>   -1.4008    1.0000 </r>
       <r>    0.8803    1.0000 </r>
       <r>    0.8803    1.0000 </r>
       <r>    2.1106    1.0000 </r>
       <r>    2.1106    1.0000 </r>
       <r>    4.0941    0.0000 </r>
       <r>    4.7478    0.0000 </r>
       <r>    5.4708    0.0000 </r>
       <r>    5.8568    0.0000 </r>
       <r>    8.5363    0.0000 </r>
       <r>    8.5363    0.0000 </r>
       <r>    8.9094    0.0000 </r>
      </set>
      <set comment="kpoint 26">
       <r>  -19.2925    1.0000 </r>
       <r>  -19.2814    1.0000 </r>
       <r>  -19.2813    1.0000 </r>
       <r>  -19.2613    1.0000 </r>
       <r>  -19.2448    1.0000 </r>
       <r>   -8.5306    1.0000 </r>
       <r>   -8.4388    1.0000 </r>
       <r>   -1.4604    1.0000 </r>
       <r>   -1.4355    1.0000 </r>
       <r>    0.8714    1.0000 </r>
       <r>    0.8873    1.0000 </r>
       <r>    2.0438    1.0000 </r>
       <r>    2.1203    1.0000 </r>
       <r>    4.1557    0.0000 </r>
       <r>    4.8225    0.0000 </r>
       <r>    5.4970    0.0000 </r>
       <r>    5.8732    0.0000 </r>
       <r>    8.3887    0.0000 </r>
       <r>    8.4979    0.0000 </r>
       <r>    8.6740    0.0000 </r>
      </set>
      <set comment="kpoint 27">
       <r>  -19.2918    1.0000 </r>
       <r>  -19.2818    1.0000 </r>
       <r>  -19.2812    1.0000 </r>
       <r>  -19.2610    1.0000 </r>
       <r>  -19.2451    1.0000 </r>
       <r>   -8.5041    1.0000 </r>
       <r>   -8.4102    1.0000 </r>
       <r>   -1.5934    1.0000 </r>
       <r>   -1.5136    1.0000 </r>
       <r>    0.8574    1.0000 </r>
       <r>    0.9080    1.0000 </r>
       <r>    1.8849    1.0000 </r>
       <r>    2.1489    1.0000 </r>
       <r>    4.2884    0.0000 </r>
       <r>    5.0250    0.0000 </r>
       <r>    5.5024    0.0000 </r>
       <r>    5.9866    0.0000 </r>
       <r>    8.1033    0.0000 </r>
       <r>    8.3879    0.0000 </r>
       <r>    8.4290    0.0000 </r>
      </set>
      <set comment="kpoint 28">
       <r>  -19.2907    1.0000 </r>
       <r>  -19.2824    1.0000 </r>
       <r>  -19.2812    1.0000 </r>
       <r>  -19.2606    1.0000 </r>
       <r>  -19.2456    1.0000 </r>
       <r>   -8.4613    1.0000 </r>
       <r>   -8.3639    1.0000 </r>
       <r>   -1.8042    1.0000 </r>
       <r>   -1.6401    1.0000 </r>
       <r>    0.8628    1.0000 </r>
       <r>    0.9411    1.0000 </r>
       <r>    1.7106    1.0000 </r>
       <r>    2.1950    1.0000 </r>
       <r>    4.3776    0.0000 </r>
       <r>    5.3405    0.0000 </r>
       <r>    5.3936    0.0000 </r>
       <r>    6.2281    0.0000 </r>
       <r>    7.8651    0.0000 </r>
       <r>    8.2205    0.0000 </r>
       <r>    8.3282    0.0000 </r>
      </set>
      <set comment="kpoint 29">
       <r>  -19.2897    1.0000 </r>
       <r>  -19.2828    1.0000 </r>
       <r>  -19.2811    1.0000 </r>
       <r>  -19.2599    1.0000 </r>
       <r>  -19.2461    1.0000 </r>
       <r>   -8.4042    1.0000 </r>
       <r>   -8.3023    1.0000 </r>
       <r>   -2.0659    1.0000 </r>
       <r>   -1.8160    1.0000 </r>
       <r>    0.9044    1.0000 </r>
       <r>    0.9848    1.0000 </r>
       <r>    1.5764    1.0000 </r>
       <r>    2.2561    1.0000 </r>
       <r>    4.3579    0.0000 </r>
       <r>    5.1666    0.0000 </r>
       <r>    5.7705    0.0000 </r>
       <r>    6.4442    0.0000 </r>
       <r>    7.7861    0.0000 </r>
       <r>    8.0153    0.0000 </r>
       <r>    8.4523    0.0000 </r>
      </set>
      <set comment="kpoint 30">
       <r>  -19.2892    1.0000 </r>
       <r>  -19.2827    1.0000 </r>
       <r>  -19.2809    1.0000 </r>
       <r>  -19.2591    1.0000 </r>
       <r>  -19.2468    1.0000 </r>
       <r>   -8.3360    1.0000 </r>
       <r>   -8.2286    1.0000 </r>
       <r>   -2.3516    1.0000 </r>
       <r>   -2.0312    1.0000 </r>
       <r>    0.9866    1.0000 </r>
       <r>    1.0362    1.0000 </r>
       <r>    1.5073    1.0000 </r>
       <r>    2.3287    1.0000 </r>
       <r>    4.2344    0.0000 </r>
       <r>    4.8753    0.0000 </r>
       <r>    6.2212    0.0000 </r>
       <r>    6.5385    0.0000 </r>
       <r>    7.7934    0.0000 </r>
       <r>    7.9114    0.0000 </r>
       <r>    8.2540    0.0000 </r>
      </set>
      <set comment="kpoint 31">
       <r>  -19.2896    1.0000 </r>
       <r>  -19.2819    1.0000 </r>
       <r>  -19.2808    1.0000 </r>
       <r>  -19.2581    1.0000 </r>
       <r>  -19.2474    1.0000 </r>
       <r>   -8.2608    1.0000 </r>
       <r>   -8.1475    1.0000 </r>
       <r>   -2.6367    1.0000 </r>
       <r>   -2.2670    1.0000 </r>
       <r>    1.0919    1.0000 </r>
       <r>    1.1074    1.0000 </r>
       <r>    1.5062    1.0000 </r>
       <r>    2.4082    1.0000 </r>
       <r>    4.0309    0.0000 </r>
       <r>    4.5429    0.0000 </r>
       <r>    6.5464    0.0000 </r>
       <r>    6.6436    0.0000 </r>
       <r>    7.5744    0.0000 </r>
       <r>    8.0256    0.0000 </r>
       <r>    8.2251    0.0000 </r>
      </set>
      <set comment="kpoint 32">
       <r>  -19.2904    1.0000 </r>
       <r>  -19.2807    1.0000 </r>
       <r>  -19.2807    1.0000 </r>
       <r>  -19.2570    1.0000 </r>
       <r>  -19.2480    1.0000 </r>
       <r>   -8.1842    1.0000 </r>
       <r>   -8.0648    1.0000 </r>
       <r>   -2.9004    1.0000 </r>
       <r>   -2.5011    1.0000 </r>
       <r>    1.1475    1.0000 </r>
       <r>    1.2607    1.0000 </r>
       <r>    1.5638    1.0000 </r>
       <r>    2.4884    1.0000 </r>
       <r>    3.7759    0.0000 </r>
       <r>    4.1987    0.0000 </r>
       <r>    6.5921    0.0000 </r>
       <r>    6.9352    0.0000 </r>
       <r>    7.3754    0.0000 </r>
       <r>    7.8018    0.0000 </r>
       <r>    8.6833    0.0000 </r>
      </set>
      <set comment="kpoint 33">
       <r>  -19.2913    1.0000 </r>
       <r>  -19.2806    1.0000 </r>
       <r>  -19.2797    1.0000 </r>
       <r>  -19.2559    1.0000 </r>
       <r>  -19.2486    1.0000 </r>
       <r>   -8.1130    1.0000 </r>
       <r>   -7.9880    1.0000 </r>
       <r>   -3.1256    1.0000 </r>
       <r>   -2.7110    1.0000 </r>
       <r>    1.1981    1.0000 </r>
       <r>    1.4377    1.0000 </r>
       <r>    1.6647    1.0000 </r>
       <r>    2.5623    1.0000 </r>
       <r>    3.4992    0.0000 </r>
       <r>    3.8691    0.0000 </r>
       <r>    6.6433    0.0000 </r>
       <r>    7.1542    0.0000 </r>
       <r>    7.2101    0.0000 </r>
       <r>    7.6005    0.0000 </r>
       <r>    9.1505    0.0000 </r>
      </set>
      <set comment="kpoint 34">
       <r>  -19.2921    1.0000 </r>
       <r>  -19.2806    1.0000 </r>
       <r>  -19.2789    1.0000 </r>
       <r>  -19.2550    1.0000 </r>
       <r>  -19.2490    1.0000 </r>
       <r>   -8.0544    1.0000 </r>
       <r>   -7.9249    1.0000 </r>
       <r>   -3.2981    1.0000 </r>
       <r>   -2.8771    1.0000 </r>
       <r>    1.2388    1.0000 </r>
       <r>    1.6219    1.0000 </r>
       <r>    1.7877    1.0000 </r>
       <r>    2.6226    1.0000 </r>
       <r>    3.2321    0.0037 </r>
       <r>    3.5819    0.0000 </r>
       <r>    6.6999    0.0000 </r>
       <r>    7.0881    0.0000 </r>
       <r>    7.3119    0.0000 </r>
       <r>    7.4390    0.0000 </r>
       <r>    9.3898    0.0000 </r>
      </set>
      <set comment="kpoint 35">
       <r>  -19.2926    1.0000 </r>
       <r>  -19.2805    1.0000 </r>
       <r>  -19.2784    1.0000 </r>
       <r>  -19.2544    1.0000 </r>
       <r>  -19.2493    1.0000 </r>
       <r>   -8.0157    1.0000 </r>
       <r>   -7.8832    1.0000 </r>
       <r>   -3.4066    1.0000 </r>
       <r>   -2.9836    1.0000 </r>
       <r>    1.2653    1.0000 </r>
       <r>    1.7782    1.0000 </r>
       <r>    1.9005    1.0000 </r>
       <r>    2.6621    1.0000 </r>
       <r>    3.0178    0.9996 </r>
       <r>    3.3745    0.0000 </r>
       <r>    6.7446    0.0000 </r>
       <r>    7.0145    0.0000 </r>
       <r>    7.3333    0.0000 </r>
       <r>    7.4117    0.0000 </r>
       <r>    9.4128    0.0000 </r>
      </set>
      <set comment="kpoint 36">
       <r>  -19.2927    1.0000 </r>
       <r>  -19.2805    1.0000 </r>
       <r>  -19.2782    1.0000 </r>
       <r>  -19.2542    1.0000 </r>
       <r>  -19.2494    1.0000 </r>
       <r>   -8.0021    1.0000 </r>
       <r>   -7.8686    1.0000 </r>
       <r>   -3.4437    1.0000 </r>
       <r>   -3.0204    1.0000 </r>
       <r>    1.2745    1.0000 </r>
       <r>    1.8436    1.0000 </r>
       <r>    1.9511    1.0000 </r>
       <r>    2.6759    1.0000 </r>
       <r>    2.9288    1.0000 </r>
       <r>    3.2959    0.0000 </r>
       <r>    6.7616    0.0000 </r>
       <r>    6.9901    0.0000 </r>
       <r>    7.2964    0.0000 </r>
       <r>    7.4465    0.0000 </r>
       <r>    9.4024    0.0000 </r>
      </set>
     </set>
    </set>
   </array>
  </eigenvalues>
  <separator name="orbital magnetization" >
   <v name="MAGDIPOLOUT">      0.00000000      0.00000000      0.00000000</v>
  </separator>
  <dos>
   <i name="efermi">      3.13744300 </i>
   <total>
    <array>
     <dimension dim="1">gridpoints</dimension>
     <dimension dim="2">spin</dimension>
     <field>energy</field>
     <field>total</field>
     <field>integrated</field>
     <set>
      <set comment="spin 1">
       <r>   -20.8113     0.0000     0.0000 </r>
       <r>   -20.7000     0.0000     0.0000 </r>
       <r>   -20.5886     0.0000     0.0000 </r>
       <r>   -20.4772     0.0000     0.0000 </r>
       <r>   -20.3659     0.0000     0.0000 </r>
       <r>   -20.2545     0.0000     0.0000 </r>
       <r>   -20.1432     0.0000     0.0000 </r>
       <r>   -20.0318     0.0000     0.0000 </r>
       <r>   -19.9205     0.0000     0.0000 </r>
       <r>   -19.8091     0.0000     0.0000 </r>
       <r>   -19.6977     0.0000     0.0000 </r>
       <r>   -19.5864     0.0000     0.0000 </r>
       <r>   -19.4750     0.0000     0.0000 </r>
       <r>   -19.3637     0.7651     0.0852 </r>
       <r>   -19.2523    61.1662     6.8965 </r>
       <r>   -19.1410    27.8350     9.9961 </r>
       <r>   -19.0296     0.0349    10.0000 </r>
       <r>   -18.9182     0.0000    10.0000 </r>
       <r>   -18.8069     0.0000    10.0000 </r>
       <r>   -18.6955     0.0000    10.0000 </r>
       <r>   -18.5842     0.0000    10.0000 </r>
       <r>   -18.4728     0.0000    10.0000 </r>
       <r>   -18.3615     0.0000    10.0000 </r>
       <r>   -18.2501     0.0000    10.0000 </r>
       <r>   -18.1387     0.0000    10.0000 </r>
       <r>   -18.0274     0.0000    10.0000 </r>
       <r>   -17.9160     0.0000    10.0000 </r>
       <r>   -17.8047     0.0000    10.0000 </r>
       <r>   -17.6933     0.0000    10.0000 </r>
       <r>   -17.5820     0.0000    10.0000 </r>
       <r>   -17.4706     0.0000    10.0000 </r>
       <r>   -17.3592     0.0000    10.0000 </r>
       <r>   -17.2479     0.0000    10.0000 </r>
       <r>   -17.1365     0.0000    10.0000 </r>
       <r>   -17.0252     0.0000    10.0000 </r>
       <r>   -16.9138     0.0000    10.0000 </r>
       <r>   -16.8025     0.0000    10.0000 </r>
       <r>   -16.6911     0.0000    10.0000 </r>
       <r>   -16.5797     0.0000    10.0000 </r>
       <r>   -16.4684     0.0000    10.0000 </r>
       <r>   -16.3570     0.0000    10.0000 </r>
       <r>   -16.2457     0.0000    10.0000 </r>
       <r>   -16.1343     0.0000    10.0000 </r>
       <r>   -16.0230     0.0000    10.0000 </r>
       <r>   -15.9116     0.0000    10.0000 </r>
       <r>   -15.8002     0.0000    10.0000 </r>
       <r>   -15.6889     0.0000    10.0000 </r>
       <r>   -15.5775     0.0000    10.0000 </r>
       <r>   -15.4662     0.0000    10.0000 </r>
       <r>   -15.3548     0.0000    10.0000 </r>
       <r>   -15.2435     0.0000    10.0000 </r>
       <r>   -15.1321     0.0000    10.0000 </r>
       <r>   -15.0207     0.0000    10.0000 </r>
       <r>   -14.9094     0.0000    10.0000 </r>
       <r>   -14.7980     0.0000    10.0000 </r>
       <r>   -14.6867     0.0000    10.0000 </r>
       <r>   -14.5753     0.0000    10.0000 </r>
       <r>   -14.4640     0.0000    10.0000 </r>
       <r>   -14.3526     0.0000    10.0000 </r>
       <r>   -14.2412     0.0000    10.0000 </r>
       <r>   -14.1299     0.0000    10.0000 </r>
       <r>   -14.0185     0.0000    10.0000 </r>
       <r>   -13.9072     0.0000    10.0000 </r>
       <r>   -13.7958     0.0000    10.0000 </r>
       <r>   -13.6845     0.0000    10.0000 </r>
       <r>   -13.5731     0.0000    10.0000 </r>
       <r>   -13.4617     0.0000    10.0000 </r>
       <r>   -13.3504     0.0000    10.0000 </r>
       <r>   -13.2390     0.0000    10.0000 </r>
       <r>   -13.1277     0.0000    10.0000 </r>
       <r>   -13.0163     0.0000    10.0000 </r>
       <r>   -12.9050     0.0000    10.0000 </r>
       <r>   -12.7936     0.0000    10.0000 </r>
       <r>   -12.6822     0.0000    10.0000 </r>
       <r>   -12.5709     0.0000    10.0000 </r>
       <r>   -12.4595     0.0000    10.0000 </r>
       <r>   -12.3482     0.0000    10.0000 </r>
       <r>   -12.2368     0.0000    10.0000 </r>
       <r>   -12.1255     0.0000    10.0000 </r>
       <r>   -12.0141     0.0000    10.0000 </r>
       <r>   -11.9027     0.0000    10.0000 </r>
       <r>   -11.7914     0.0000    10.0000 </r>
       <r>   -11.6800     0.0000    10.0000 </r>
       <r>   -11.5687     0.0000    10.0000 </r>
       <r>   -11.4573     0.0000    10.0000 </r>
       <r>   -11.3460     0.0000    10.0000 </r>
       <r>   -11.2346     0.0000    10.0000 </r>
       <r>   -11.1232     0.0000    10.0000 </r>
       <r>   -11.0119     0.0000    10.0000 </r>
       <r>   -10.9005     0.0000    10.0000 </r>
       <r>   -10.7892     0.0000    10.0000 </r>
       <r>   -10.6778     0.0000    10.0000 </r>
       <r>   -10.5665     0.0000    10.0000 </r>
       <r>   -10.4551     0.0000    10.0000 </r>
       <r>   -10.3437     0.0000    10.0000 </r>
       <r>   -10.2324     0.0000    10.0000 </r>
       <r>   -10.1210     0.0000    10.0000 </r>
       <r>   -10.0097     0.0000    10.0000 </r>
       <r>    -9.8983     0.0000    10.0000 </r>
       <r>    -9.7870     0.0000    10.0000 </r>
       <r>    -9.6756     0.0000    10.0000 </r>
       <r>    -9.5642     0.0000    10.0000 </r>
       <r>    -9.4529     0.0000    10.0000 </r>
       <r>    -9.3415     0.0000    10.0000 </r>
       <r>    -9.2302     0.0848    10.0094 </r>
       <r>    -9.1188     2.4976    10.2876 </r>
       <r>    -9.0075     1.8317    10.4915 </r>
       <r>    -8.8961     1.2535    10.6311 </r>
       <r>    -8.7847     1.0046    10.7430 </r>
       <r>    -8.6734     0.7739    10.8292 </r>
       <r>    -8.5620     1.3023    10.9742 </r>
       <r>    -8.4507     2.7730    11.2830 </r>
       <r>    -8.3393     3.3939    11.6609 </r>
       <r>    -8.2280     2.1314    11.8983 </r>
       <r>    -8.1166     2.1451    12.1371 </r>
       <r>    -8.0052     2.6251    12.4295 </r>
       <r>    -7.8939     2.1297    12.6666 </r>
       <r>    -7.7825     1.6252    12.8476 </r>
       <r>    -7.6712     0.7081    12.9265 </r>
       <r>    -7.5598     1.0794    13.0466 </r>
       <r>    -7.4485     2.6549    13.3423 </r>
       <r>    -7.3371     4.9362    13.8920 </r>
       <r>    -7.2257     0.9620    13.9991 </r>
       <r>    -7.1144     0.0082    14.0000 </r>
       <r>    -7.0030     0.0000    14.0000 </r>
       <r>    -6.8917     0.0000    14.0000 </r>
       <r>    -6.7803     0.0000    14.0000 </r>
       <r>    -6.6690     0.0000    14.0000 </r>
       <r>    -6.5576     0.0000    14.0000 </r>
       <r>    -6.4462     0.0000    14.0000 </r>
       <r>    -6.3349     0.0000    14.0000 </r>
       <r>    -6.2235     0.0000    14.0000 </r>
       <r>    -6.1122     0.0000    14.0000 </r>
       <r>    -6.0008     0.0000    14.0000 </r>
       <r>    -5.8895     0.0000    14.0000 </r>
       <r>    -5.7781     0.0000    14.0000 </r>
       <r>    -5.6667     0.0000    14.0000 </r>
       <r>    -5.5554     0.0000    14.0000 </r>
       <r>    -5.4440     0.0000    14.0000 </r>
       <r>    -5.3327     0.0000    14.0000 </r>
       <r>    -5.2213     0.0000    14.0000 </r>
       <r>    -5.1100     0.0000    14.0000 </r>
       <r>    -4.9986     0.0000    14.0000 </r>
       <r>    -4.8872     0.0000    14.0000 </r>
       <r>    -4.7759     0.0000    14.0000 </r>
       <r>    -4.6645     0.0000    14.0000 </r>
       <r>    -4.5532     0.0000    14.0000 </r>
       <r>    -4.4418     0.0000    14.0000 </r>
       <r>    -4.3305     0.0000    14.0000 </r>
       <r>    -4.2191     0.0000    14.0000 </r>
       <r>    -4.1077     0.0000    14.0000 </r>
       <r>    -3.9964     0.0000    14.0000 </r>
       <r>    -3.8850     0.0000    14.0000 </r>
       <r>    -3.7737     0.0000    14.0000 </r>
       <r>    -3.6623     0.0003    14.0000 </r>
       <r>    -3.5510     0.9437    14.1051 </r>
       <r>    -3.4396     5.2980    14.6951 </r>
       <r>    -3.3282     3.4906    15.0838 </r>
       <r>    -3.2169     0.8404    15.1774 </r>
       <r>    -3.1055     1.2303    15.3144 </r>
       <r>    -2.9942     0.9246    15.4174 </r>
       <r>    -2.8828     1.3026    15.5624 </r>
       <r>    -2.7715     0.9774    15.6712 </r>
       <r>    -2.6601     1.0451    15.7876 </r>
       <r>    -2.5487     0.5956    15.8539 </r>
       <r>    -2.4374     0.7963    15.9426 </r>
       <r>    -2.3260     0.5539    16.0043 </r>
       <r>    -2.2147     1.3919    16.1593 </r>
       <r>    -2.1033     0.1497    16.1760 </r>
       <r>    -1.9920     1.1234    16.3011 </r>
       <r>    -1.8806     0.3143    16.3361 </r>
       <r>    -1.7692     1.0658    16.4547 </r>
       <r>    -1.6579     1.0419    16.5708 </r>
       <r>    -1.5465     0.9052    16.6716 </r>
       <r>    -1.4352     1.6160    16.8515 </r>
       <r>    -1.3238     1.8149    17.0536 </r>
       <r>    -1.2125     0.1915    17.0749 </r>
       <r>    -1.1011     0.5866    17.1403 </r>
       <r>    -0.9897     0.2367    17.1666 </r>
       <r>    -0.8784     0.0028    17.1669 </r>
       <r>    -0.7670     0.3548    17.2064 </r>
       <r>    -0.6557     0.3820    17.2490 </r>
       <r>    -0.5443     0.2638    17.2784 </r>
       <r>    -0.4330     0.3988    17.3228 </r>
       <r>    -0.3216     0.0998    17.3339 </r>
       <r>    -0.2102     0.8623    17.4299 </r>
       <r>    -0.0989     1.9068    17.6423 </r>
       <r>     0.0125     0.5775    17.7066 </r>
       <r>     0.1238     0.8280    17.7988 </r>
       <r>     0.2352     2.8115    18.1118 </r>
       <r>     0.3465     2.0069    18.3353 </r>
       <r>     0.4579     3.4797    18.7228 </r>
       <r>     0.5693     5.4113    19.3254 </r>
       <r>     0.6806     3.6631    19.7333 </r>
       <r>     0.7920     2.7622    20.0409 </r>
       <r>     0.9033     7.5568    20.8824 </r>
       <r>     1.0147     3.9198    21.3189 </r>
       <r>     1.1260     2.2261    21.5668 </r>
       <r>     1.2374     2.8244    21.8813 </r>
       <r>     1.3488     1.9984    22.1039 </r>
       <r>     1.4601     1.0243    22.2179 </r>
       <r>     1.5715     2.2209    22.4652 </r>
       <r>     1.6828     2.2914    22.7204 </r>
       <r>     1.7942     2.2027    22.9657 </r>
       <r>     1.9055     2.5635    23.2511 </r>
       <r>     2.0169     1.3541    23.4019 </r>
       <r>     2.1283     3.1097    23.7482 </r>
       <r>     2.2396     3.3827    24.1249 </r>
       <r>     2.3510     2.2025    24.3702 </r>
       <r>     2.4623     1.9392    24.5861 </r>
       <r>     2.5737     1.8596    24.7932 </r>
       <r>     2.6850     2.2599    25.0449 </r>
       <r>     2.7964     1.4791    25.2096 </r>
       <r>     2.9078     2.0154    25.4340 </r>
       <r>     3.0191     2.4932    25.7116 </r>
       <r>     3.1305     2.4112    25.9801 </r>
       <r>     3.2418     3.1411    26.3299 </r>
       <r>     3.3532     1.2394    26.4679 </r>
       <r>     3.4645     0.9524    26.5740 </r>
       <r>     3.5759     1.0343    26.6892 </r>
       <r>     3.6873     0.4608    26.7405 </r>
       <r>     3.7986     0.9615    26.8476 </r>
       <r>     3.9100     2.0583    27.0768 </r>
       <r>     4.0213     1.9129    27.2898 </r>
       <r>     4.1327     4.1751    27.7547 </r>
       <r>     4.2440     4.3414    28.2382 </r>
       <r>     4.3554     3.6640    28.6462 </r>
       <r>     4.4668     3.6736    29.0552 </r>
       <r>     4.5781     1.8114    29.2570 </r>
       <r>     4.6895     3.3647    29.6316 </r>
       <r>     4.8008     4.4254    30.1244 </r>
       <r>     4.9122     1.8049    30.3254 </r>
       <r>     5.0235     1.2321    30.4626 </r>
       <r>     5.1349     1.3003    30.6074 </r>
       <r>     5.2463     2.0704    30.8380 </r>
       <r>     5.3576     2.0907    31.0708 </r>
       <r>     5.4690     2.4232    31.3406 </r>
       <r>     5.5803     1.4700    31.5043 </r>
       <r>     5.6917     0.4916    31.5591 </r>
       <r>     5.8030     2.3139    31.8167 </r>
       <r>     5.9144     3.7061    32.2294 </r>
       <r>     6.0258     1.4501    32.3909 </r>
       <r>     6.1371     1.2830    32.5338 </r>
       <r>     6.2485     3.9760    32.9765 </r>
       <r>     6.3598     3.8895    33.4097 </r>
       <r>     6.4712     2.1724    33.6516 </r>
       <r>     6.5825     2.6557    33.9473 </r>
       <r>     6.6939     2.7276    34.2511 </r>
       <r>     6.8053     1.6676    34.4368 </r>
       <r>     6.9166     1.3959    34.5922 </r>
       <r>     7.0280     2.3468    34.8535 </r>
       <r>     7.1393     1.3600    35.0050 </r>
       <r>     7.2507     1.9402    35.2210 </r>
       <r>     7.3620     1.6048    35.3997 </r>
       <r>     7.4734     2.7980    35.7113 </r>
       <r>     7.5848     1.0681    35.8303 </r>
       <r>     7.6961     0.9565    35.9368 </r>
       <r>     7.8075     2.4888    36.2139 </r>
       <r>     7.9188     1.4014    36.3700 </r>
       <r>     8.0302     1.7526    36.5651 </r>
       <r>     8.1415     2.6320    36.8582 </r>
       <r>     8.2529     1.3302    37.0064 </r>
       <r>     8.3643     1.7907    37.2058 </r>
       <r>     8.4756     2.8456    37.5226 </r>
       <r>     8.5870     2.6776    37.8208 </r>
       <r>     8.6983     1.3082    37.9665 </r>
       <r>     8.8097     0.7450    38.0494 </r>
       <r>     8.9210     1.6400    38.2321 </r>
       <r>     9.0324     1.5207    38.4014 </r>
       <r>     9.1438     1.5203    38.5707 </r>
       <r>     9.2551     0.6186    38.6396 </r>
       <r>     9.3665     1.6826    38.8270 </r>
       <r>     9.4778     1.9844    39.0479 </r>
       <r>     9.5892     1.7088    39.2382 </r>
       <r>     9.7005     0.6483    39.3104 </r>
       <r>     9.8119     0.2056    39.3333 </r>
       <r>     9.9233     0.0116    39.3346 </r>
       <r>    10.0346     0.5151    39.3920 </r>
       <r>    10.1460     0.9311    39.4957 </r>
       <r>    10.2573     0.5186    39.5534 </r>
       <r>    10.3687     0.0193    39.5556 </r>
       <r>    10.4800     0.0012    39.5557 </r>
       <r>    10.5914     0.3347    39.5930 </r>
       <r>    10.7028     0.8130    39.6835 </r>
       <r>    10.8141     0.7431    39.7662 </r>
       <r>    10.9255     0.2325    39.7921 </r>
       <r>    11.0368     0.7379    39.8743 </r>
       <r>    11.1482     1.1059    39.9974 </r>
       <r>    11.2595     0.0229    40.0000 </r>
       <r>    11.3709     0.0000    40.0000 </r>
       <r>    11.4823     0.0000    40.0000 </r>
       <r>    11.5936     0.0000    40.0000 </r>
       <r>    11.7050     0.0000    40.0000 </r>
       <r>    11.8163     0.0000    40.0000 </r>
       <r>    11.9277     0.0000    40.0000 </r>
       <r>    12.0390     0.0000    40.0000 </r>
       <r>    12.1504     0.0000    40.0000 </r>
       <r>    12.2618     0.0000    40.0000 </r>
       <r>    12.3731     0.0000    40.0000 </r>
       <r>    12.4845     0.0000    40.0000 </r>
       <r>    12.5958     0.0000    40.0000 </r>
      </set>
     </set>
    </array>
   </total>
   <partial>
    <array>
     <dimension dim="1">gridpoints</dimension>
     <dimension dim="2">spin</dimension>
     <dimension dim="3">ion</dimension>
     <field>energy</field>
     <field>    s</field>
     <field>   py</field>
     <field>   pz</field>
     <field>   px</field>
     <field>  dxy</field>
     <field>  dyz</field>
     <field>  dz2</field>
     <field>  dxz</field>
     <field>x2-y2</field>
     <set>
      <set comment="ion 1">
       <set comment="spin 1">
        <r>   -20.8113     0.0000     0.0000     0.0000     0.0000     0.0000     0.0000     0.0000     0.0000     0.0000 </r>
        <r>   -20.7000     0.0000     0.0000     0.0000     0.0000     0.0000     0.0000     0.0000     0.0000     0.0000 </r>
        <r>   -20.5886     0.0000     0.0000     0.0000     0.0000     0.0000     0.0000     0.0000     0.0000     0.0000 </r>
        <r>   -20.4772     0.0000     0.0000     0.0000     0.0000     0.0000     0.0000     0.0000     0.0000     0.0000 </r>
        <r>   -20.3659     0.0000     0.0000     0.0000     0.0000     0.0000     0.0000     0.0000     0.0000     0.0000 </r>
        <r>   -20.2545     0.0000     0.0000     0.0000     0.0000     0.0000     0.0000     0.0000     0.0000     0.0000 </r>
        <r>   -20.1432     0.0000     0.0000     0.0000     0.0000     0.0000     0.0000     0.0000     0.0000     0.0000 </r>
        <r>   -20.0318     0.0000     0.0000     0.0000     0.0000     0.0000     0.0000     0.0000     0.0000     0.0000 </r>
        <r>   -19.9205     0.0000     0.0000     0.0000     0.0000     0.0000     0.0000     0.0000     0.0000     0.0000 </r>
        <r>   -19.8091     0.0000     0.0000     0.0000     0.0000     0.0000     0.0000     0.0000     0.0000     0.0000 </r>
        <r>   -19.6977     0.0000     0.0000     0.0000     0.0000     0.0000     0.0000     0.0000     0.0000     0.0000 </r>
        <r>   -19.5864     0.0000     0.0000     0.0000     0.0000     0.0000     0.0000     0.0000     0.0000     0.0000 </r>
        <r>   -19.4750     0.0000     0.0000     0.0000     0.0000     0.0000     0.0000     0.0000     0.0000     0.0000 </r>
        <r>   -19.3637     0.0003     0.0000     0.0002     0.0003     0.0000     0.0000     0.0000     0.0001     0.0000 </r>
        <r>   -19.2523     0.0141     0.0011     0.0104     0.0217     0.0005     0.0003     0.0014     0.0081     0.0020 </r>
        <r>   -19.1410     0.0028     0.0004     0.0021     0.0061     0.0005     0.0001     0.0006     0.0023     0.0007 </r>
        <r>   -19.0296     0.0000     0.0000     0.0000     0.0000     0.0000     0.0000     0.0000     0.0000     0.0000 </r>
        <r>   -18.9182     0.0000     0.0000     0.0000     0.0000     0.0000     0.0000     0.0000     0.0000     0.0000 </r>
        <r>   -18.8069     0.0000     0.0000     0.0000     0.0000     0.0000     0.0000     0.0000     0.0000     0.0000 </r>
        <r>   -18.6955     0.0000     0.0000     0.0000     0.0000     0.0000     0.0000     0.0000     0.0000     0.0000 </r>
        <r>   -18.5842     0.0000     0.0000     0.0000     0.0000     0.0000     0.0000     0.0000     0.0000     0.0000 </r>
        <r>   -18.4728     0.0000     0.0000     0.0000     0.0000     0.0000     0.0000     0.0000     0.0000     0.0000 </r>
        <r>   -18.3615     0.0000     0.0000     0.0000     0.0000     0.0000     0.0000     0.0000     0.0000     0.0000 </r>
        <r>   -18.2501     0.0000     0.0000     0.0000     0.0000     0.0000     0.0000     0.0000     0.0000     0.0000 </r>
        <r>   -18.1387     0.0000     0.0000     0.0000     0.0000     0.0000     0.0000     0.0000     0.0000     0.0000 </r>
        <r>   -18.0274     0.0000     0.0000     0.0000     0.0000     0.0000     0.0000     0.0000     0.0000     0.0000 </r>
        <r>   -17.9160     0.0000     0.0000     0.0000     0.0000     0.0000     0.0000     0.0000     0.0000     0.0000 </r>
        <r>   -17.8047     0.0000     0.0000     0.0000     0.0000     0.0000     0.0000     0.0000     0.0000     0.0000 </r>
        <r>   -17.6933     0.0000     0.0000     0.0000     0.0000     0.0000     0.0000     0.0000     0.0000     0.0000 </r>
        <r>   -17.5820     0.0000     0.0000     0.0000     0.0000     0.0000     0.0000     0.0000     0.0000     0.0000 </r>
        <r>   -17.4706     0.0000     0.0000     0.0000     0.0000     0.0000     0.0000     0.0000     0.0000     0.0000 </r>
        <r>   -17.3592     0.0000     0.0000     0.0000     0.0000     0.0000     0.0000     0.0000     0.0000     0.0000 </r>
        <r>   -17.2479     0.0000     0.0000     0.0000     0.0000     0.0000     0.0000     0.0000     0.0000     0.0000 </r>
        <r>   -17.1365     0.0000     0.0000     0.0000     0.0000     0.0000     0.0000     0.0000     0.0000     0.0000 </r>
        <r>   -17.0252     0.0000     0.0000     0.0000     0.0000     0.0000     0.0000     0.0000     0.0000     0.0000 </r>
        <r>   -16.9138     0.0000     0.0000     0.0000     0.0000     0.0000     0.0000     0.0000     0.0000     0.0000 </r>
        <r>   -16.8025     0.0000     0.0000     0.0000     0.0000     0.0000     0.0000     0.0000     0.0000     0.0000 </r>
        <r>   -16.6911     0.0000     0.0000     0.0000     0.0000     0.0000     0.0000     0.0000     0.0000     0.0000 </r>
        <r>   -16.5797     0.0000     0.0000     0.0000     0.0000     0.0000     0.0000     0.0000     0.0000     0.0000 </r>
        <r>   -16.4684     0.0000     0.0000     0.0000     0.0000     0.0000     0.0000     0.0000     0.0000     0.0000 </r>
        <r>   -16.3570     0.0000     0.0000     0.0000     0.0000     0.0000     0.0000     0.0000     0.0000     0.0000 </r>
        <r>   -16.2457     0.0000     0.0000     0.0000     0.0000     0.0000     0.0000     0.0000     0.0000     0.0000 </r>
        <r>   -16.1343     0.0000     0.0000     0.0000     0.0000     0.0000     0.0000     0.0000     0.0000     0.0000 </r>
        <r>   -16.0230     0.0000     0.0000     0.0000     0.0000     0.0000     0.0000     0.0000     0.0000     0.0000 </r>
        <r>   -15.9116     0.0000     0.0000     0.0000     0.0000     0.0000     0.0000     0.0000     0.0000     0.0000 </r>
        <r>   -15.8002     0.0000     0.0000     0.0000     0.0000     0.0000     0.0000     0.0000     0.0000     0.0000 </r>
        <r>   -15.6889     0.0000     0.0000     0.0000     0.0000     0.0000     0.0000     0.0000     0.0000     0.0000 </r>
        <r>   -15.5775     0.0000     0.0000     0.0000     0.0000     0.0000     0.0000     0.0000     0.0000     0.0000 </r>
        <r>   -15.4662     0.0000     0.0000     0.0000     0.0000     0.0000     0.0000     0.0000     0.0000     0.0000 </r>
        <r>   -15.3548     0.0000     0.0000     0.0000     0.0000     0.0000     0.0000     0.0000     0.0000     0.0000 </r>
        <r>   -15.2435     0.0000     0.0000     0.0000     0.0000     0.0000     0.0000     0.0000     0.0000     0.0000 </r>
        <r>   -15.1321     0.0000     0.0000     0.0000     0.0000     0.0000     0.0000     0.0000     0.0000     0.0000 </r>
        <r>   -15.0207     0.0000     0.0000     0.0000     0.0000     0.0000     0.0000     0.0000     0.0000     0.0000 </r>
        <r>   -14.9094     0.0000     0.0000     0.0000     0.0000     0.0000     0.0000     0.0000     0.0000     0.0000 </r>
        <r>   -14.7980     0.0000     0.0000     0.0000     0.0000     0.0000     0.0000     0.0000     0.0000     0.0000 </r>
        <r>   -14.6867     0.0000     0.0000     0.0000     0.0000     0.0000     0.0000     0.0000     0.0000     0.0000 </r>
        <r>   -14.5753     0.0000     0.0000     0.0000     0.0000     0.0000     0.0000     0.0000     0.0000     0.0000 </r>
        <r>   -14.4640     0.0000     0.0000     0.0000     0.0000     0.0000     0.0000     0.0000     0.0000     0.0000 </r>
        <r>   -14.3526     0.0000     0.0000     0.0000     0.0000     0.0000     0.0000     0.0000     0.0000     0.0000 </r>
        <r>   -14.2412     0.0000     0.0000     0.0000     0.0000     0.0000     0.0000     0.0000     0.0000     0.0000 </r>
        <r>   -14.1299     0.0000     0.0000     0.0000     0.0000     0.0000     0.0000     0.0000     0.0000     0.0000 </r>
        <r>   -14.0185     0.0000     0.0000     0.0000     0.0000     0.0000     0.0000     0.0000     0.0000     0.0000 </r>
        <r>   -13.9072     0.0000     0.0000     0.0000     0.0000     0.0000     0.0000     0.0000     0.0000     0.0000 </r>
        <r>   -13.7958     0.0000     0.0000     0.0000     0.0000     0.0000     0.0000     0.0000     0.0000     0.0000 </r>
        <r>   -13.6845     0.0000     0.0000     0.0000     0.0000     0.0000     0.0000     0.0000     0.0000     0.0000 </r>
        <r>   -13.5731     0.0000     0.0000     0.0000     0.0000     0.0000     0.0000     0.0000     0.0000     0.0000 </r>
        <r>   -13.4617     0.0000     0.0000     0.0000     0.0000     0.0000     0.0000     0.0000     0.0000     0.0000 </r>
        <r>   -13.3504     0.0000     0.0000     0.0000     0.0000     0.0000     0.0000     0.0000     0.0000     0.0000 </r>
        <r>   -13.2390     0.0000     0.0000     0.0000     0.0000     0.0000     0.0000     0.0000     0.0000     0.0000 </r>
        <r>   -13.1277     0.0000     0.0000     0.0000     0.0000     0.0000     0.0000     0.0000     0.0000     0.0000 </r>
        <r>   -13.0163     0.0000     0.0000     0.0000     0.0000     0.0000     0.0000     0.0000     0.0000     0.0000 </r>
        <r>   -12.9050     0.0000     0.0000     0.0000     0.0000     0.0000     0.0000     0.0000     0.0000     0.0000 </r>
        <r>   -12.7936     0.0000     0.0000     0.0000     0.0000     0.0000     0.0000     0.0000     0.0000     0.0000 </r>
        <r>   -12.6822     0.0000     0.0000     0.0000     0.0000     0.0000     0.0000     0.0000     0.0000     0.0000 </r>
        <r>   -12.5709     0.0000     0.0000     0.0000     0.0000     0.0000     0.0000     0.0000     0.0000     0.0000 </r>
        <r>   -12.4595     0.0000     0.0000     0.0000     0.0000     0.0000     0.0000     0.0000     0.0000     0.0000 </r>
        <r>   -12.3482     0.0000     0.0000     0.0000     0.0000     0.0000     0.0000     0.0000     0.0000     0.0000 </r>
        <r>   -12.2368     0.0000     0.0000     0.0000     0.0000     0.0000     0.0000     0.0000     0.0000     0.0000 </r>
        <r>   -12.1255     0.0000     0.0000     0.0000     0.0000     0.0000     0.0000     0.0000     0.0000     0.0000 </r>
        <r>   -12.0141     0.0000     0.0000     0.0000     0.0000     0.0000     0.0000     0.0000     0.0000     0.0000 </r>
        <r>   -11.9027     0.0000     0.0000     0.0000     0.0000     0.0000     0.0000     0.0000     0.0000     0.0000 </r>
        <r>   -11.7914     0.0000     0.0000     0.0000     0.0000     0.0000     0.0000     0.0000     0.0000     0.0000 </r>
        <r>   -11.6800     0.0000     0.0000     0.0000     0.0000     0.0000     0.0000     0.0000     0.0000     0.0000 </r>
        <r>   -11.5687     0.0000     0.0000     0.0000     0.0000     0.0000     0.0000     0.0000     0.0000     0.0000 </r>
        <r>   -11.4573     0.0000     0.0000     0.0000     0.0000     0.0000     0.0000     0.0000     0.0000     0.0000 </r>
        <r>   -11.3460     0.0000     0.0000     0.0000     0.0000     0.0000     0.0000     0.0000     0.0000     0.0000 </r>
        <r>   -11.2346     0.0000     0.0000     0.0000     0.0000     0.0000     0.0000     0.0000     0.0000     0.0000 </r>
        <r>   -11.1232     0.0000     0.0000     0.0000     0.0000     0.0000     0.0000     0.0000     0.0000     0.0000 </r>
        <r>   -11.0119     0.0000     0.0000     0.0000     0.0000     0.0000     0.0000     0.0000     0.0000     0.0000 </r>
        <r>   -10.9005     0.0000     0.0000     0.0000     0.0000     0.0000     0.0000     0.0000     0.0000     0.0000 </r>
        <r>   -10.7892     0.0000     0.0000     0.0000     0.0000     0.0000     0.0000     0.0000     0.0000     0.0000 </r>
        <r>   -10.6778     0.0000     0.0000     0.0000     0.0000     0.0000     0.0000     0.0000     0.0000     0.0000 </r>
        <r>   -10.5665     0.0000     0.0000     0.0000     0.0000     0.0000     0.0000     0.0000     0.0000     0.0000 </r>
        <r>   -10.4551     0.0000     0.0000     0.0000     0.0000     0.0000     0.0000     0.0000     0.0000     0.0000 </r>
[...]
        <r>  0.0000  0.0000  0.0000  0.0000  0.0009  0.0000  0.0000  0.0004  0.0000 </r>
       </set>
       <set comment="band 14">
        <r>  0.0191  0.0362  0.0438  0.0000  0.0000  0.0070  0.0002  0.0000  0.0016 </r>
        <r>  0.2102  0.0034  0.0200  0.0000  0.0000  0.0029  0.0011  0.0000  0.0057 </r>
        <r>  0.0085  0.0203  0.0352  0.0000  0.0000  0.0118  0.0000  0.0000  0.0018 </r>
        <r>  0.0867  0.0366  0.0433  0.0000  0.0000  0.0004  0.0003  0.0000  0.0042 </r>
       </set>
       <set comment="band 15">
        <r>  0.2192  0.0036  0.0145  0.0000  0.0000  0.0017  0.0000  0.0000  0.0033 </r>
        <r>  0.0142  0.0941  0.0276  0.0000  0.0000  0.0048  0.0003  0.0000  0.0007 </r>
        <r>  0.1023  0.0265  0.0411  0.0000  0.0000  0.0006  0.0002  0.0000  0.0042 </r>
        <r>  0.0078  0.0176  0.0206  0.0000  0.0000  0.0100  0.0001  0.0000  0.0009 </r>
       </set>
       <set comment="band 16">
        <r>  0.0007  0.0890  0.0000  0.0000  0.0000  0.0125  0.0007  0.0000  0.0007 </r>
        <r>  0.0001  0.0012  0.1918  0.0000  0.0000  0.0001  0.0234  0.0000  0.0114 </r>
        <r>  0.0011  0.0251  0.0008  0.0000  0.0000  0.0170  0.0000  0.0000  0.0000 </r>
        <r>  0.0005  0.0041  0.0450  0.0000  0.0000  0.0006  0.0212  0.0000  0.0156 </r>
       </set>
       <set comment="band 17">
        <r>  0.0000  0.0000  0.0000  0.2498  0.0031  0.0000  0.0000  0.0221  0.0000 </r>
        <r>  0.0000  0.0000  0.0000  0.0049  0.0313  0.0000  0.0000  0.0047  0.0000 </r>
        <r>  0.0000  0.0000  0.0000  0.0923  0.0010  0.0000  0.0000  0.0319  0.0000 </r>
        <r>  0.0000  0.0000  0.0000  0.0148  0.0259  0.0000  0.0000  0.0003  0.0000 </r>
       </set>
       <set comment="band 18">
        <r>  0.0002  0.0002  0.1632  0.0000  0.0000  0.0004  0.0297  0.0000  0.0244 </r>
        <r>  0.0031  0.0795  0.0002  0.0000  0.0000  0.0031  0.0003  0.0000  0.0002 </r>
        <r>  0.0009  0.0011  0.0397  0.0000  0.0000  0.0009  0.0366  0.0000  0.0290 </r>
        <r>  0.0021  0.0371  0.0013  0.0000  0.0000  0.0057  0.0001  0.0000  0.0005 </r>
       </set>
       <set comment="band 19">
        <r>  0.0000  0.0000  0.0000  0.0027  0.0258  0.0000  0.0000  0.0054  0.0000 </r>
        <r>  0.0000  0.0000  0.0000  0.2782  0.0032  0.0000  0.0000  0.0221  0.0000 </r>
        <r>  0.0000  0.0000  0.0000  0.0249  0.0311  0.0000  0.0000  0.0001  0.0000 </r>
        <r>  0.0000  0.0000  0.0000  0.0611  0.0007  0.0000  0.0000  0.0339  0.0000 </r>
       </set>
       <set comment="band 20">
        <r>  0.0019  0.0350  0.0370  0.0000  0.0000  0.0001  0.0018  0.0000  0.0120 </r>
        <r>  0.0000  0.0486  0.0011  0.0000  0.0000  0.0207  0.0003  0.0000  0.0001 </r>
        <r>  0.0004  0.0003  0.0532  0.0000  0.0000  0.0001  0.0014  0.0000  0.0044 </r>
        <r>  0.0026  0.1015  0.0105  0.0000  0.0000  0.0007  0.0003  0.0000  0.0053 </r>
       </set>
      </set>
      <set comment="kpoint 35">
       <set comment="band 1">
        <r>  0.0000  0.0001  0.0000  0.0000  0.0000  0.0000  0.0000  0.0000  0.0000 </r>
        <r>  0.0019  0.0000  0.0008  0.0000  0.0000  0.0000  0.0000  0.0000  0.0003 </r>
        <r>  0.0000  0.0000  0.0000  0.0000  0.0000  0.9811  0.0000  0.0000  0.0034 </r>
        <r>  0.0000  0.0000  0.0000  0.0000  0.0000  0.0000  0.0000  0.0000  0.0000 </r>
       </set>
       <set comment="band 2">
        <r>  0.0000  0.0000  0.0000  0.0018  0.0000  0.0000  0.0000  0.0006  0.0000 </r>
        <r>  0.0000  0.0000  0.0000  0.0000  0.0001  0.0000  0.0000  0.0000  0.0000 </r>
        <r>  0.0000  0.0000  0.0000  0.0000  0.0000  0.0000  0.0000  0.9859  0.0000 </r>
        <r>  0.0000  0.0000  0.0000  0.0000  0.0000  0.0000  0.0000  0.0000  0.0000 </r>
       </set>
       <set comment="band 3">
        <r>  0.0006  0.0000  0.0007  0.0000  0.0000  0.0000  0.0001  0.0000  0.0000 </r>
        <r>  0.0000  0.0006  0.0000  0.0000  0.0000  0.0003  0.0000  0.0000  0.0000 </r>
        <r>  0.0000  0.0000  0.0000  0.0000  0.0000  0.0031  0.1292  0.0000  0.8528 </r>
        <r>  0.0000  0.0000  0.0000  0.0000  0.0000  0.0000  0.0000  0.0000  0.0000 </r>
       </set>
       <set comment="band 4">
        <r>  0.0002  0.0000  0.0000  0.0000  0.0000  0.0000  0.0000  0.0000  0.0001 </r>
        <r>  0.0000  0.0000  0.0000  0.0000  0.0000  0.0000  0.0000  0.0000  0.0000 </r>
        <r>  0.0000  0.0000  0.0000  0.0000  0.0000  0.0003  0.8574  0.0000  0.1293 </r>
        <r>  0.0000  0.0000  0.0000  0.0000  0.0000  0.0000  0.0000  0.0000  0.0000 </r>
       </set>
       <set comment="band 5">
        <r>  0.0000  0.0000  0.0000  0.0000  0.0001  0.0000  0.0000  0.0000  0.0000 </r>
        <r>  0.0000  0.0000  0.0000  0.0001  0.0000  0.0000  0.0000  0.0001  0.0000 </r>
        <r>  0.0000  0.0000  0.0000  0.0000  0.9868  0.0000  0.0000  0.0000  0.0000 </r>
        <r>  0.0000  0.0000  0.0000  0.0000  0.0000  0.0000  0.0000  0.0000  0.0000 </r>
       </set>
       <set comment="band 6">
        <r>  0.0027  0.0275  0.0003  0.0000  0.0000  0.0048  0.0000  0.0000  0.0000 </r>
        <r>  0.0919  0.0000  0.0117  0.0000  0.0000  0.0000  0.0000  0.0000  0.0030 </r>
        <r>  0.0000  0.0005  0.0002  0.0000  0.0000  0.0009  0.0000  0.0000  0.0000 </r>
        <r>  0.5413  0.0001  0.0002  0.0000  0.0000  0.0000  0.0000  0.0000  0.0001 </r>
       </set>
       <set comment="band 7">
        <r>  0.0800  0.0000  0.0122  0.0000  0.0000  0.0000  0.0000  0.0000  0.0017 </r>
        <r>  0.0023  0.0190  0.0003  0.0000  0.0000  0.0043  0.0000  0.0000  0.0000 </r>
        <r>  0.6499  0.0001  0.0004  0.0000  0.0000  0.0000  0.0000  0.0000  0.0005 </r>
        <r>  0.0000  0.0006  0.0001  0.0000  0.0000  0.0002  0.0000  0.0000  0.0000 </r>
       </set>
       <set comment="band 8">
        <r>  0.3847  0.0011  0.0204  0.0000  0.0000  0.0002  0.0000  0.0000  0.0002 </r>
        <r>  0.0000  0.0401  0.0004  0.0000  0.0000  0.0001  0.0000  0.0000  0.0001 </r>
        <r>  0.0355  0.0000  0.0481  0.0000  0.0000  0.0000  0.0000  0.0000  0.0012 </r>
        <r>  0.0028  0.0963  0.0001  0.0000  0.0000  0.0013  0.0000  0.0000  0.0000 </r>
       </set>
       <set comment="band 9">
        <r>  0.0001  0.0462  0.0005  0.0000  0.0000  0.0002  0.0000  0.0000  0.0002 </r>
        <r>  0.3699  0.0006  0.0214  0.0000  0.0000  0.0001  0.0000  0.0000  0.0000 </r>
        <r>  0.0033  0.1031  0.0002  0.0000  0.0000  0.0035  0.0000  0.0000  0.0001 </r>
        <r>  0.0327  0.0000  0.0535  0.0000  0.0000  0.0000  0.0000  0.0000  0.0010 </r>
       </set>
       <set comment="band 10">
        <r>  0.0000  0.0000  0.0000  0.0010  0.0054  0.0000  0.0000  0.0001  0.0000 </r>
        <r>  0.0000  0.0000  0.0000  0.2167  0.0000  0.0000  0.0000  0.0203  0.0000 </r>
        <r>  0.0000  0.0000  0.0000  0.0000  0.0005  0.0000  0.0000  0.0001  0.0000 </r>
        <r>  0.0000  0.0000  0.0000  0.3570  0.0000  0.0000  0.0000  0.0024  0.0000 </r>
       </set>
       <set comment="band 11">
        <r>  0.0105  0.0731  0.0364  0.0000  0.0000  0.0028  0.0010  0.0000  0.0010 </r>
        <r>  0.0055  0.0016  0.0969  0.0000  0.0000  0.0018  0.0053  0.0000  0.0110 </r>
        <r>  0.0043  0.0828  0.0365  0.0000  0.0000  0.0030  0.0000  0.0000  0.0017 </r>
        <r>  0.0030  0.0386  0.2003  0.0000  0.0000  0.0000  0.0005  0.0000  0.0009 </r>
       </set>
       <set comment="band 12">
        <r>  0.0003  0.0017  0.1165  0.0000  0.0000  0.0017  0.0014  0.0000  0.0113 </r>
        <r>  0.0133  0.0680  0.0349  0.0000  0.0000  0.0062  0.0017  0.0000  0.0006 </r>
        <r>  0.0000  0.0520  0.2014  0.0000  0.0000  0.0000  0.0009  0.0000  0.0018 </r>
        <r>  0.0057  0.0836  0.0330  0.0000  0.0000  0.0008  0.0000  0.0000  0.0013 </r>
       </set>
       <set comment="band 13">
        <r>  0.0000  0.0000  0.0000  0.2461  0.0000  0.0000  0.0000  0.0165  0.0000 </r>
        <r>  0.0000  0.0000  0.0000  0.0016  0.0033  0.0000  0.0000  0.0001  0.0000 </r>
        <r>  0.0000  0.0000  0.0000  0.3969  0.0000  0.0000  0.0000  0.0060  0.0000 </r>
        <r>  0.0000  0.0000  0.0000  0.0000  0.0010  0.0000  0.0000  0.0001  0.0000 </r>
       </set>
       <set comment="band 14">
        <r>  0.0069  0.0388  0.0176  0.0000  0.0000  0.0085  0.0001  0.0000  0.0007 </r>
        <r>  0.2493  0.0015  0.0288  0.0000  0.0000  0.0011  0.0003  0.0000  0.0052 </r>
        <r>  0.0031  0.0403  0.0150  0.0000  0.0000  0.0135  0.0000  0.0000  0.0007 </r>
        <r>  0.1059  0.0150  0.0269  0.0000  0.0000  0.0001  0.0002  0.0000  0.0052 </r>
       </set>
       <set comment="band 15">
        <r>  0.2531  0.0012  0.0211  0.0000  0.0000  0.0006  0.0001  0.0000  0.0033 </r>
        <r>  0.0047  0.0986  0.0092  0.0000  0.0000  0.0056  0.0001  0.0000  0.0002 </r>
        <r>  0.1164  0.0094  0.0307  0.0000  0.0000  0.0002  0.0004  0.0000  0.0053 </r>
        <r>  0.0025  0.0282  0.0075  0.0000  0.0000  0.0109  0.0000  0.0000  0.0003 </r>
       </set>
       <set comment="band 16">
        <r>  0.0002  0.0875  0.0000  0.0000  0.0000  0.0124  0.0002  0.0000  0.0002 </r>
        <r>  0.0000  0.0003  0.1988  0.0000  0.0000  0.0000  0.0254  0.0000  0.0116 </r>
        <r>  0.0003  0.0241  0.0002  0.0000  0.0000  0.0171  0.0000  0.0000  0.0000 </r>
        <r>  0.0003  0.0011  0.0508  0.0000  0.0000  0.0002  0.0223  0.0000  0.0163 </r>
       </set>
       <set comment="band 17">
        <r>  0.0000  0.0000  0.0000  0.2464  0.0010  0.0000  0.0000  0.0253  0.0000 </r>
        <r>  0.0000  0.0000  0.0000  0.0017  0.0342  0.0000  0.0000  0.0013  0.0000 </r>
        <r>  0.0000  0.0000  0.0000  0.1043  0.0003  0.0000  0.0000  0.0311  0.0000 </r>
        <r>  0.0000  0.0000  0.0000  0.0042  0.0269  0.0000  0.0000  0.0001  0.0000 </r>
       </set>
       <set comment="band 18">
        <r>  0.0000  0.0000  0.0000  0.0009  0.0286  0.0000  0.0000  0.0016  0.0000 </r>
        <r>  0.0000  0.0000  0.0000  0.2805  0.0010  0.0000  0.0000  0.0249  0.0000 </r>
        <r>  0.0000  0.0000  0.0000  0.0072  0.0331  0.0000  0.0000  0.0000  0.0000 </r>
        <r>  0.0000  0.0000  0.0000  0.0670  0.0002  0.0000  0.0000  0.0336  0.0000 </r>
       </set>
       <set comment="band 19">
        <r>  0.0000  0.0000  0.1644  0.0000  0.0000  0.0001  0.0340  0.0000  0.0245 </r>
        <r>  0.0008  0.0778  0.0001  0.0000  0.0000  0.0033  0.0001  0.0000  0.0001 </r>
        <r>  0.0010  0.0003  0.0451  0.0000  0.0000  0.0002  0.0392  0.0000  0.0295 </r>
        <r>  0.0005  0.0354  0.0003  0.0000  0.0000  0.0063  0.0000  0.0000  0.0001 </r>
       </set>
       <set comment="band 20">
        <r>  0.0000  0.0066  0.0313  0.0000  0.0000  0.0000  0.0001  0.0000  0.0092 </r>
        <r>  0.0000  0.0568  0.0009  0.0000  0.0000  0.0228  0.0001  0.0000  0.0000 </r>
        <r>  0.0017  0.0000  0.0471  0.0000  0.0000  0.0000  0.0012  0.0000  0.0046 </r>
        <r>  0.0003  0.0772  0.0027  0.0000  0.0000  0.0028  0.0000  0.0000  0.0010 </r>
       </set>
      </set>
      <set comment="kpoint 36">
       <set comment="band 1">
        <r>  0.0000  0.0001  0.0000  0.0000  0.0000  0.0000  0.0000  0.0000  0.0000 </r>
        <r>  0.0019  0.0000  0.0008  0.0000  0.0000  0.0000  0.0000  0.0000  0.0003 </r>
        <r>  0.0000  0.0000  0.0000  0.0000  0.0000  0.9845  0.0000  0.0000  0.0000 </r>
        <r>  0.0000  0.0000  0.0000  0.0000  0.0000  0.0000  0.0000  0.0000  0.0000 </r>
       </set>
       <set comment="band 2">
        <r>  0.0000  0.0000  0.0000  0.0018  0.0000  0.0000  0.0000  0.0006  0.0000 </r>
        <r>  0.0000  0.0000  0.0000  0.0000  0.0001  0.0000  0.0000  0.0000  0.0000 </r>
        <r>  0.0000  0.0000  0.0000  0.0000  0.0000  0.0000  0.0000  0.9859  0.0000 </r>
        <r>  0.0000  0.0000  0.0000  0.0000  0.0000  0.0000  0.0000  0.0000  0.0000 </r>
       </set>
       <set comment="band 3">
        <r>  0.0006  0.0000  0.0007  0.0000  0.0000  0.0000  0.0001  0.0000  0.0000 </r>
        <r>  0.0000  0.0006  0.0000  0.0000  0.0000  0.0002  0.0000  0.0000  0.0000 </r>
        <r>  0.0000  0.0000  0.0000  0.0000  0.0000  0.0000  0.1345  0.0000  0.8507 </r>
        <r>  0.0000  0.0000  0.0000  0.0000  0.0000  0.0000  0.0000  0.0000  0.0000 </r>
       </set>
       <set comment="band 4">
        <r>  0.0002  0.0000  0.0000  0.0000  0.0000  0.0000  0.0000  0.0000  0.0001 </r>
        <r>  0.0000  0.0000  0.0000  0.0000  0.0000  0.0001  0.0000  0.0000  0.0000 </r>
        <r>  0.0000  0.0000  0.0000  0.0000  0.0000  0.0000  0.8522  0.0000  0.1348 </r>
        <r>  0.0000  0.0000  0.0000  0.0000  0.0000  0.0000  0.0000  0.0000  0.0000 </r>
       </set>
       <set comment="band 5">
        <r>  0.0000  0.0000  0.0000  0.0000  0.0001  0.0000  0.0000  0.0000  0.0000 </r>
        <r>  0.0000  0.0000  0.0000  0.0001  0.0000  0.0000  0.0000  0.0001  0.0000 </r>
        <r>  0.0000  0.0000  0.0000  0.0000  0.9868  0.0000  0.0000  0.0000  0.0000 </r>
        <r>  0.0000  0.0000  0.0000  0.0000  0.0000  0.0000  0.0000  0.0000  0.0000 </r>
       </set>
       <set comment="band 6">
        <r>  0.0000  0.0283  0.0000  0.0000  0.0000  0.0049  0.0000  0.0000  0.0000 </r>
        <r>  0.0926  0.0000  0.0118  0.0000  0.0000  0.0000  0.0000  0.0000  0.0030 </r>
        <r>  0.0000  0.0005  0.0000  0.0000  0.0000  0.0010  0.0000  0.0000  0.0000 </r>
        <r>  0.5435  0.0000  0.0002  0.0000  0.0000  0.0000  0.0000  0.0000  0.0001 </r>
       </set>
       <set comment="band 7">
        <r>  0.0808  0.0000  0.0122  0.0000  0.0000  0.0000  0.0000  0.0000  0.0017 </r>
        <r>  0.0000  0.0195  0.0000  0.0000  0.0000  0.0044  0.0000  0.0000  0.0000 </r>
        <r>  0.6523  0.0000  0.0004  0.0000  0.0000  0.0000  0.0000  0.0000  0.0006 </r>
        <r>  0.0000  0.0006  0.0000  0.0000  0.0000  0.0002  0.0000  0.0000  0.0000 </r>
       </set>
       <set comment="band 8">
        <r>  0.3863  0.0000  0.0211  0.0000  0.0000  0.0000  0.0000  0.0000  0.0002 </r>
        <r>  0.0000  0.0406  0.0000  0.0000  0.0000  0.0001  0.0000  0.0000  0.0000 </r>
        <r>  0.0359  0.0000  0.0478  0.0000  0.0000  0.0000  0.0000  0.0000  0.0012 </r>
        <r>  0.0000  0.0967  0.0000  0.0000  0.0000  0.0013  0.0000  0.0000  0.0000 </r>
       </set>
       <set comment="band 9">
        <r>  0.0000  0.0467  0.0000  0.0000  0.0000  0.0002  0.0000  0.0000  0.0000 </r>
        <r>  0.3704  0.0000  0.0222  0.0000  0.0000  0.0000  0.0000  0.0000  0.0000 </r>
        <r>  0.0000  0.1043  0.0000  0.0000  0.0000  0.0035  0.0000  0.0000  0.0000 </r>
        <r>  0.0329  0.0000  0.0530  0.0000  0.0000  0.0000  0.0000  0.0000  0.0010 </r>
       </set>
       <set comment="band 10">
        <r>  0.0000  0.0000  0.0000  0.0000  0.0055  0.0000  0.0000  0.0000  0.0000 </r>
        <r>  0.0000  0.0000  0.0000  0.2175  0.0000  0.0000  0.0000  0.0204  0.0000 </r>
        <r>  0.0000  0.0000  0.0000  0.0000  0.0006  0.0000  0.0000  0.0000  0.0000 </r>
        <r>  0.0000  0.0000  0.0000  0.3579  0.0000  0.0000  0.0000  0.0024  0.0000 </r>
       </set>
       <set comment="band 11">
        <r>  0.0000  0.0750  0.0000  0.0000  0.0000  0.0042  0.0000  0.0000  0.0000 </r>
        <r>  0.0006  0.0000  0.1338  0.0000  0.0000  0.0000  0.0072  0.0000  0.0120 </r>
        <r>  0.0000  0.1290  0.0000  0.0000  0.0000  0.0024  0.0000  0.0000  0.0000 </r>
        <r>  0.0005  0.0000  0.2469  0.0000  0.0000  0.0000  0.0005  0.0000  0.0017 </r>
       </set>
       <set comment="band 12">
        <r>  0.0014  0.0000  0.1673  0.0000  0.0000  0.0000  0.0024  0.0000  0.0130 </r>
        <r>  0.0000  0.0685  0.0000  0.0000  0.0000  0.0087  0.0000  0.0000  0.0000 </r>
        <r>  0.0009  0.0000  0.2571  0.0000  0.0000  0.0000  0.0008  0.0000  0.0035 </r>
        <r>  0.0000  0.1305  0.0000  0.0000  0.0000  0.0005  0.0000  0.0000  0.0000 </r>
       </set>
       <set comment="band 13">
        <r>  0.0000  0.0000  0.0000  0.2480  0.0000  0.0000  0.0000  0.0166  0.0000 </r>
        <r>  0.0000  0.0000  0.0000  0.0000  0.0034  0.0000  0.0000  0.0000  0.0000 </r>
        <r>  0.0000  0.0000  0.0000  0.3981  0.0000  0.0000  0.0000  0.0062  0.0000 </r>
        <r>  0.0000  0.0000  0.0000  0.0000  0.0011  0.0000  0.0000  0.0000  0.0000 </r>
       </set>
       <set comment="band 14">
        <r>  0.0000  0.0398  0.0000  0.0000  0.0000  0.0094  0.0000  0.0000  0.0000 </r>
        <r>  0.2735  0.0000  0.0352  0.0000  0.0000  0.0000  0.0001  0.0000  0.0051 </r>
        <r>  0.0000  0.0540  0.0000  0.0000  0.0000  0.0143  0.0000  0.0000  0.0000 </r>
        <r>  0.1173  0.0000  0.0202  0.0000  0.0000  0.0000  0.0001  0.0000  0.0059 </r>
       </set>
       <set comment="band 15">
        <r>  0.2701  0.0000  0.0249  0.0000  0.0000  0.0000  0.0002  0.0000  0.0033 </r>
        <r>  0.0000  0.1008  0.0000  0.0000  0.0000  0.0060  0.0000  0.0000  0.0000 </r>
        <r>  0.1235  0.0000  0.0267  0.0000  0.0000  0.0000  0.0005  0.0000  0.0060 </r>
        <r>  0.0000  0.0340  0.0000  0.0000  0.0000  0.0113  0.0000  0.0000  0.0000 </r>
       </set>
       <set comment="band 16">
        <r>  0.0000  0.0871  0.0000  0.0000  0.0000  0.0124  0.0000  0.0000  0.0000 </r>
        <r>  0.0000  0.0000  0.2014  0.0000  0.0000  0.0000  0.0261  0.0000  0.0117 </r>
        <r>  0.0000  0.0238  0.0000  0.0000  0.0000  0.0172  0.0000  0.0000  0.0000 </r>
        <r>  0.0003  0.0000  0.0528  0.0000  0.0000  0.0000  0.0227  0.0000  0.0165 </r>
       </set>
       <set comment="band 17">
        <r>  0.0000  0.0000  0.0000  0.2456  0.0000  0.0000  0.0000  0.0267  0.0000 </r>
        <r>  0.0000  0.0000  0.0000  0.0000  0.0355  0.0000  0.0000  0.0000  0.0000 </r>
        <r>  0.0000  0.0000  0.0000  0.1095  0.0000  0.0000  0.0000  0.0309  0.0000 </r>
        <r>  0.0000  0.0000  0.0000  0.0000  0.0273  0.0000  0.0000  0.0000  0.0000 </r>
       </set>
       <set comment="band 18">
        <r>  0.0000  0.0000  0.0000  0.0000  0.0297  0.0000  0.0000  0.0000  0.0000 </r>
        <r>  0.0000  0.0000  0.0000  0.2820  0.0000  0.0000  0.0000  0.0261  0.0000 </r>
        <r>  0.0000  0.0000  0.0000  0.0000  0.0338  0.0000  0.0000  0.0000  0.0000 </r>
        <r>  0.0000  0.0000  0.0000  0.0696  0.0000  0.0000  0.0000  0.0335  0.0000 </r>
       </set>
       <set comment="band 19">
        <r>  0.0000  0.0000  0.1653  0.0000  0.0000  0.0000  0.0355  0.0000  0.0247 </r>
        <r>  0.0000  0.0773  0.0000  0.0000  0.0000  0.0033  0.0000  0.0000  0.0000 </r>
        <r>  0.0010  0.0000  0.0469  0.0000  0.0000  0.0000  0.0401  0.0000  0.0297 </r>
        <r>  0.0000  0.0350  0.0000  0.0000  0.0000  0.0066  0.0000  0.0000  0.0000 </r>
       </set>
       <set comment="band 20">
        <r>  0.0002  0.0000  0.0287  0.0000  0.0000  0.0000  0.0000  0.0000  0.0083 </r>
        <r>  0.0000  0.0591  0.0000  0.0000  0.0000  0.0233  0.0000  0.0000  0.0000 </r>
        <r>  0.0022  0.0000  0.0456  0.0000  0.0000  0.0000  0.0013  0.0000  0.0046 </r>
        <r>  0.0000  0.0703  0.0000  0.0000  0.0000  0.0034  0.0000  0.0000  0.0000 </r>
       </set>
      </set>
     </set>
    </set>
   </array>
  </projected>
 </calculation>
 <structure name="finalpos" >
  <crystal>
   <varray name="basis" >
    <v>       4.30014086       0.00000000       0.00000000 </v>
    <v>       0.00000000       4.30014086       0.00000000 </v>
    <v>       0.00000000       0.00000000       6.14586115 </v>
   </varray>
   <i name="volume">    113.64441771 </i>
   <varray name="rec_basis" >
    <v>       0.23255052       0.00000000       0.00000000 </v>
    <v>       0.00000000       0.23255052       0.00000000 </v>
    <v>       0.00000000       0.00000000       0.16271113 </v>
   </varray>
  </crystal>
  <varray name="positions" >
   <v>       0.50000000       0.00000000       0.72573602 </v>
   <v>       0.00000000       0.50000000       0.27426400 </v>
   <v>       0.00000000       0.00000000       0.00000000 </v>
   <v>       0.50000000       0.50000000       0.50000000 </v>
  </varray>
 </structure>
</modeling>
