natom:    4
displacements:
- atom:    1
  direction:
    [   1.0000000000000000,  1.0000000000000000,  1.0000000000000000 ]
  displacement:
    [   0.0049735371993967,  0.0049735371993967,  0.0071082948343773 ]
- atom:    1
  direction:
    [  -1.0000000000000000, -1.0000000000000000, -1.0000000000000000 ]
  displacement:
    [  -0.0049735371993967, -0.0049735371993967, -0.0071082948343773 ]
- atom:    3
  direction:
    [   1.0000000000000000,  0.0000000000000000,  1.0000000000000000 ]
  displacement:
    [   0.0057328678552325,  0.0000000000000000,  0.0081935478368313 ]
- atom:    3
  direction:
    [  -1.0000000000000000,  0.0000000000000000, -1.0000000000000000 ]
  displacement:
    [  -0.0057328678552325,  0.0000000000000000, -0.0081935478368313 ]
- atom:    4
  direction:
    [   1.0000000000000000,  0.0000000000000000,  1.0000000000000000 ]
  displacement:
    [   0.0057328678552325,  0.0000000000000000,  0.0081935478368313 ]
- atom:    4
  direction:
    [  -1.0000000000000000,  0.0000000000000000, -1.0000000000000000 ]
  displacement:
    [  -0.0057328678552325,  0.0000000000000000, -0.0081935478368313 ]
lattice:
- [     4.300140857700000,     0.000000000000000,     0.000000000000000 ] # a
- [     0.000000000000000,     4.300140857700000,     0.000000000000000 ] # b
- [     0.000000000000000,     0.000000000000000,     6.145861148800000 ] # c
points:
- symbol: Ga # 1
  coordinates: [  0.500000000000000,  0.000000000000000,  0.725736017000000 ]
  mass: 69.723000
- symbol: Ga # 2
  coordinates: [  0.000000000000000,  0.500000000000000,  0.274264003000000 ]
  mass: 69.723000
- symbol: Bi # 3
  coordinates: [  0.000000000000000,  0.000000000000000,  0.000000000000000 ]
  mass: 208.980400
- symbol: As # 4
  coordinates: [  0.500000000000000,  0.500000000000000,  0.500000000000000 ]
  mass: 74.921600