   4   4   0   0
  0.2841110E+02  0.4300141E-09  0.4300141E-09  0.6145861E-09  0.5000000E-15
  1.000000000000000E-004
  CAR 
 CsAs                                    
     19.26530951    -21.05276437  301      3.21036564      1.00000000
    -21.053  0.0000E+00  0.0000E+00
    -20.918  0.0000E+00  0.0000E+00
    -20.784  0.0000E+00  0.0000E+00
    -20.650  0.0000E+00  0.0000E+00
    -20.515  0.0000E+00  0.0000E+00
    -20.381  0.0000E+00  0.0000E+00
    -20.246  0.0000E+00  0.0000E+00
    -20.112  0.0000E+00  0.0000E+00
    -19.978  0.0000E+00  0.0000E+00
    -19.843  0.0000E+00  0.0000E+00
    -19.709  0.0000E+00  0.0000E+00
    -19.574  0.0000E+00  0.0000E+00
    -19.440  0.5046E-08  0.6782E-09
    -19.306  0.2145E+00  0.2882E-01
    -19.171  0.5463E+02  0.7371E+01
    -19.037  0.1956E+02  0.1000E+02
    -18.902  0.2554E-02  0.1000E+02
    -18.768  0.1042E-11  0.1000E+02
    -18.634  0.0000E+00  0.1000E+02
    -18.499  0.0000E+00  0.1000E+02
    -18.365  0.0000E+00  0.1000E+02
    -18.230  0.0000E+00  0.1000E+02
    -18.096  0.0000E+00  0.1000E+02
    -17.962  0.0000E+00  0.1000E+02
    -17.827  0.0000E+00  0.1000E+02
    -17.693  0.0000E+00  0.1000E+02
    -17.559  0.0000E+00  0.1000E+02
    -17.424  0.0000E+00  0.1000E+02
    -17.290  0.0000E+00  0.1000E+02
    -17.155  0.0000E+00  0.1000E+02
    -17.021  0.0000E+00  0.1000E+02
    -16.887  0.0000E+00  0.1000E+02
    -16.752  0.0000E+00  0.1000E+02
    -16.618  0.0000E+00  0.1000E+02
    -16.483  0.0000E+00  0.1000E+02
    -16.349  0.0000E+00  0.1000E+02
    -16.215  0.0000E+00  0.1000E+02
    -16.080  0.0000E+00  0.1000E+02
    -15.946  0.0000E+00  0.1000E+02
    -15.811  0.0000E+00  0.1000E+02
    -15.677  0.0000E+00  0.1000E+02
    -15.543  0.0000E+00  0.1000E+02
    -15.408  0.0000E+00  0.1000E+02
    -15.274  0.0000E+00  0.1000E+02
    -15.139  0.0000E+00  0.1000E+02
    -15.005  0.0000E+00  0.1000E+02
    -14.871  0.0000E+00  0.1000E+02
    -14.736  0.0000E+00  0.1000E+02
    -14.602  0.0000E+00  0.1000E+02
    -14.467  0.0000E+00  0.1000E+02
    -14.333  0.0000E+00  0.1000E+02
    -14.199  0.0000E+00  0.1000E+02
    -14.064  0.0000E+00  0.1000E+02
    -13.930  0.0000E+00  0.1000E+02
    -13.796  0.0000E+00  0.1000E+02
    -13.661  0.0000E+00  0.1000E+02
    -13.527  0.0000E+00  0.1000E+02
    -13.392  0.0000E+00  0.1000E+02
    -13.258  0.0000E+00  0.1000E+02
    -13.124  0.0000E+00  0.1000E+02
    -12.989  0.0000E+00  0.1000E+02
    -12.855  0.0000E+00  0.1000E+02
    -12.720  0.0000E+00  0.1000E+02
    -12.586  0.0000E+00  0.1000E+02
    -12.452  0.0000E+00  0.1000E+02
    -12.317  0.0000E+00  0.1000E+02
    -12.183  0.0000E+00  0.1000E+02
    -12.048  0.0000E+00  0.1000E+02
    -11.914  0.0000E+00  0.1000E+02
    -11.780  0.0000E+00  0.1000E+02
    -11.645  0.0000E+00  0.1000E+02
    -11.511  0.0000E+00  0.1000E+02
    -11.376  0.0000E+00  0.1000E+02
    -11.242  0.0000E+00  0.1000E+02
    -11.108  0.0000E+00  0.1000E+02
    -10.973  0.0000E+00  0.1000E+02
    -10.839  0.0000E+00  0.1000E+02
    -10.704  0.0000E+00  0.1000E+02
    -10.570  0.0000E+00  0.1000E+02
    -10.436  0.0000E+00  0.1000E+02
    -10.301  0.0000E+00  0.1000E+02
    -10.167  0.0000E+00  0.1000E+02
    -10.032  0.0000E+00  0.1000E+02
     -9.898  0.0000E+00  0.1000E+02
     -9.764  0.0000E+00  0.1000E+02
     -9.629  0.0000E+00  0.1000E+02
     -9.495  0.0000E+00  0.1000E+02
     -9.361  0.5809E-11  0.1000E+02
     -9.226  0.1038E-02  0.1000E+02
     -9.092  0.4493E+00  0.1006E+02
     -8.957  0.1009E+00  0.1007E+02
     -8.823  0.3971E+00  0.1013E+02
     -8.689  0.7049E+00  0.1022E+02
     -8.554  0.3620E+00  0.1027E+02
     -8.420  0.1838E+01  0.1052E+02
     -8.285  0.2585E+01  0.1087E+02
     -8.151  0.1828E+01  0.1111E+02
     -8.017  0.4995E+00  0.1118E+02
     -7.882  0.2996E+01  0.1158E+02
     -7.748  0.7638E+01  0.1261E+02
     -7.613  0.9935E+00  0.1274E+02
     -7.479  0.3566E+01  0.1322E+02
     -7.345  0.4180E+01  0.1378E+02
     -7.210  0.1621E+01  0.1400E+02
     -7.076  0.9977E-03  0.1400E+02
     -6.941  0.1190E-11  0.1400E+02
     -6.807  0.0000E+00  0.1400E+02
     -6.673  0.0000E+00  0.1400E+02
     -6.538  0.0000E+00  0.1400E+02
     -6.404  0.0000E+00  0.1400E+02
     -6.269  0.0000E+00  0.1400E+02
     -6.135  0.0000E+00  0.1400E+02
     -6.001  0.0000E+00  0.1400E+02
     -5.866  0.0000E+00  0.1400E+02
     -5.732  0.0000E+00  0.1400E+02
     -5.598  0.0000E+00  0.1400E+02
     -5.463  0.0000E+00  0.1400E+02
     -5.329  0.0000E+00  0.1400E+02
     -5.194  0.0000E+00  0.1400E+02
     -5.060  0.0000E+00  0.1400E+02
     -4.926  0.0000E+00  0.1400E+02
     -4.791  0.0000E+00  0.1400E+02
     -4.657  0.0000E+00  0.1400E+02
     -4.522  0.0000E+00  0.1400E+02
     -4.388  0.0000E+00  0.1400E+02
     -4.254  0.0000E+00  0.1400E+02
     -4.119  0.0000E+00  0.1400E+02
     -3.985  0.0000E+00  0.1400E+02
     -3.850  0.0000E+00  0.1400E+02
     -3.716  0.8566E-09  0.1400E+02
     -3.582  0.9267E-02  0.1400E+02
     -3.447  0.7566E+00  0.1410E+02
     -3.313  0.2014E+01  0.1437E+02
     -3.178  0.5995E+01  0.1518E+02
     -3.044  0.4858E+01  0.1583E+02
     -2.910  0.1460E+00  0.1585E+02
     -2.775  0.7485E+00  0.1595E+02
     -2.641  0.3651E+01  0.1644E+02
     -2.506  0.4635E-01  0.1645E+02
     -2.372  0.3026E+01  0.1686E+02
     -2.238  0.8700E+00  0.1697E+02
     -2.103  0.3770E+01  0.1748E+02
     -1.969  0.1400E-01  0.1748E+02
     -1.834  0.1447E-09  0.1748E+02
     -1.700  0.0000E+00  0.1748E+02
     -1.566  0.3173E-07  0.1748E+02
     -1.431  0.8880E-01  0.1749E+02
     -1.297  0.2072E+01  0.1777E+02
     -1.163  0.4409E-01  0.1778E+02
     -1.028  0.5259E-08  0.1778E+02
     -0.894  0.0000E+00  0.1778E+02
     -0.759  0.2937E-14  0.1778E+02
     -0.625  0.6098E-04  0.1778E+02
     -0.491  0.1537E+01  0.1798E+02
     -0.356  0.4593E+01  0.1860E+02
     -0.222  0.8693E+00  0.1872E+02
     -0.087  0.9634E+00  0.1885E+02
      0.047  0.1948E+01  0.1911E+02
      0.181  0.1447E+01  0.1930E+02
      0.316  0.5093E+01  0.1999E+02
      0.450  0.1558E+00  0.2001E+02
      0.585  0.4723E+01  0.2064E+02
      0.719  0.7647E+00  0.2075E+02
      0.853  0.2074E+01  0.2103E+02
      0.988  0.7947E+00  0.2113E+02
      1.122  0.6436E+01  0.2200E+02
      1.257  0.1112E+02  0.2349E+02
      1.391  0.3769E+01  0.2400E+02
      1.525  0.1160E-01  0.2400E+02
      1.660  0.1752E-09  0.2400E+02
      1.794  0.3387E-02  0.2400E+02
      1.929  0.4942E+00  0.2407E+02
      2.063  0.9565E-01  0.2408E+02
      2.197  0.4048E+01  0.2462E+02
      2.332  0.3520E+00  0.2467E+02
      2.466  0.2057E+01  0.2495E+02
      2.601  0.1429E+01  0.2514E+02
      2.735  0.3098E+01  0.2556E+02
      2.869  0.1818E+01  0.2580E+02
      3.004  0.8417E+00  0.2591E+02
      3.138  0.1079E+00  0.2593E+02
      3.272  0.2663E+01  0.2629E+02
      3.407  0.2833E+01  0.2667E+02
      3.541  0.1130E-02  0.2667E+02
      3.676  0.7617E-12  0.2667E+02
      3.810  0.4790E-09  0.2667E+02
      3.944  0.1090E-01  0.2667E+02
      4.079  0.1018E+01  0.2680E+02
      4.213  0.1647E+01  0.2703E+02
      4.348  0.3395E+01  0.2748E+02
      4.482  0.5261E+00  0.2755E+02
      4.616  0.4422E+00  0.2761E+02
      4.751  0.8016E+01  0.2869E+02
      4.885  0.1643E+01  0.2891E+02
      5.020  0.2041E+01  0.2919E+02
      5.154  0.1655E+01  0.2941E+02
      5.288  0.1651E+01  0.2963E+02
      5.423  0.1527E-02  0.2963E+02
      5.557  0.1466E-01  0.2963E+02
      5.692  0.3785E+01  0.3014E+02
      5.826  0.2608E+01  0.3049E+02
      5.960  0.1311E+01  0.3067E+02
      6.095  0.2505E+01  0.3100E+02
      6.229  0.4907E+01  0.3166E+02
      6.364  0.5323E+00  0.3173E+02
      6.498  0.3206E+00  0.3178E+02
      6.632  0.4090E-02  0.3178E+02
      6.767  0.3915E+01  0.3230E+02
      6.901  0.2896E+01  0.3269E+02
      7.035  0.2012E+01  0.3296E+02
      7.170  0.6121E+01  0.3379E+02
      7.304  0.2690E+01  0.3415E+02
      7.439  0.2578E-02  0.3415E+02
      7.573  0.3731E+01  0.3465E+02
      7.707  0.5082E+01  0.3533E+02
      7.842  0.3727E-02  0.3533E+02
      7.976  0.1556E+01  0.3554E+02
      8.111  0.3108E+01  0.3596E+02
      8.245  0.4097E+01  0.3651E+02
      8.379  0.6168E-01  0.3652E+02
      8.514  0.1833E+01  0.3677E+02
      8.648  0.8140E+00  0.3687E+02
      8.783  0.5045E+01  0.3755E+02
      8.917  0.4986E+01  0.3822E+02
      9.051  0.3836E+01  0.3874E+02
      9.186  0.7747E+01  0.3978E+02
      9.320  0.5382E+00  0.3985E+02
      9.455  0.2627E-03  0.3985E+02
      9.589  0.2186E+01  0.4015E+02
      9.723  0.3318E+01  0.4059E+02
      9.858  0.4446E+01  0.4119E+02
      9.992  0.4005E+01  0.4173E+02
     10.127  0.1646E+01  0.4195E+02
     10.261  0.2306E+01  0.4226E+02
     10.395  0.7697E+01  0.4329E+02
     10.530  0.3527E+01  0.4377E+02
     10.664  0.1734E+01  0.4400E+02
     10.799  0.8247E+00  0.4411E+02
     10.933  0.2479E+01  0.4444E+02
     11.067  0.3381E-02  0.4444E+02
     11.202  0.5599E-08  0.4444E+02
     11.336  0.6822E-01  0.4445E+02
     11.470  0.4586E+01  0.4507E+02
     11.605  0.3373E+01  0.4552E+02
     11.739  0.1014E+02  0.4689E+02
     11.874  0.5311E+01  0.4760E+02
     12.008  0.1886E+01  0.4785E+02
     12.142  0.4098E+01  0.4840E+02
     12.277  0.1385E+01  0.4859E+02
     12.411  0.1373E+01  0.4877E+02
     12.546  0.4653E+01  0.4940E+02
     12.680  0.4052E+00  0.4945E+02
     12.814  0.6165E+01  0.5028E+02
     12.949  0.9950E-01  0.5030E+02
     13.083  0.6574E-05  0.5030E+02
     13.218  0.6672E+00  0.5039E+02
     13.352  0.3699E+01  0.5088E+02
     13.486  0.3882E+01  0.5140E+02
     13.621  0.8337E-01  0.5142E+02
     13.755  0.6030E+01  0.5223E+02
     13.890  0.5577E+01  0.5298E+02
     14.024  0.5109E+01  0.5366E+02
     14.158  0.3190E+00  0.5371E+02
     14.293  0.2673E+01  0.5406E+02
     14.427  0.2815E+01  0.5444E+02
     14.562  0.3702E+01  0.5494E+02
     14.696  0.4798E+01  0.5559E+02
     14.830  0.3878E+01  0.5611E+02
     14.965  0.1963E+01  0.5637E+02
     15.099  0.3096E+01  0.5679E+02
     15.234  0.5501E+01  0.5753E+02
     15.368  0.3770E+01  0.5803E+02
     15.502  0.6308E+01  0.5888E+02
     15.637  0.6041E+00  0.5896E+02
     15.771  0.1181E-01  0.5896E+02
     15.905  0.1775E-02  0.5896E+02
     16.040  0.1822E+01  0.5921E+02
     16.174  0.6445E+01  0.6007E+02
     16.309  0.2049E+01  0.6035E+02
     16.443  0.7048E+00  0.6044E+02
     16.577  0.2157E-04  0.6044E+02
     16.712  0.3776E-01  0.6045E+02
     16.846  0.4450E+01  0.6105E+02
     16.981  0.4087E+01  0.6160E+02
     17.115  0.6784E+01  0.6251E+02
     17.249  0.2102E+01  0.6279E+02
     17.384  0.4950E+01  0.6346E+02
     17.518  0.4011E+01  0.6400E+02
     17.653  0.3432E-01  0.6400E+02
     17.787  0.1095E-08  0.6400E+02
     17.921  0.0000E+00  0.6400E+02
     18.056  0.0000E+00  0.6400E+02
     18.190  0.0000E+00  0.6400E+02
     18.325  0.0000E+00  0.6400E+02
     18.459  0.0000E+00  0.6400E+02
     18.593  0.0000E+00  0.6400E+02
     18.728  0.0000E+00  0.6400E+02
     18.862  0.0000E+00  0.6400E+02
     18.997  0.0000E+00  0.6400E+02
     19.131  0.0000E+00  0.6400E+02
     19.265  0.0000E+00  0.6400E+02
