    4    4    1    1
  0.2841110E+02  0.4300141E-09  0.4300141E-09  0.6145861E-09  0.5000000E-15
  1.000000000000000E-004
  CAR 
 CsAs                                    
     26      6     32
 
  0.0000000E+00  0.0000000E+00  0.0000000E+00  0.3703704E-01
    1      -19.211019   1.000000
    2      -19.211019   1.000000
    3      -19.209701   1.000000
    4      -19.200170   1.000000
    5      -19.159785   1.000000
    6       -9.123700   1.000000
    7       -7.374176   1.000000
    8       -3.506485   1.000000
    9        0.507026   1.000000
   10        0.507026   1.000000
   11        1.882664   1.000000
   12        2.969964   1.000000
   13        3.216993   0.425652
   14        3.216994   0.425645
   15        4.163072   0.000000
   16        4.415005   0.000000
   17        6.207000   0.000000
   18        6.207000   0.000000
   19        6.370821   0.000000
   20        8.944456   0.000000
   21       11.478006   0.000000
   22       11.478006   0.000000
   23       12.081973   0.000000
   24       12.211962   0.000000
   25       12.494786   0.000000
   26       13.240422   0.000000
   27       13.270757   0.000000
   28       13.270758   0.000000
   29       13.960486   0.000000
   30       15.066612   0.000000
   31       15.066612   0.000000
   32       15.565089   0.000000
 
  0.3333333E+00  0.0000000E+00  0.0000000E+00  0.1481481E+00
    1      -19.220017   1.000000
    2      -19.210453   1.000000
    3      -19.202844   1.000000
    4      -19.190130   1.000000
    5      -19.163338   1.000000
    6       -8.519588   1.000000
    7       -7.497193   1.000000
    8       -3.224887   1.000000
    9       -1.369519   1.000000
   10       -0.383586   1.000000
   11        1.030328   1.000000
   12        1.118197   1.000000
   13        2.836231   1.000000
   14        4.229281   0.000000
   15        5.175321   0.000000
   16        6.735927   0.000000
   17        6.948300   0.000000
   18        7.548020   0.000000
   19        8.479567   0.000000
   20        9.086351   0.000000
   21        9.156185   0.000000
   22       10.119749   0.000000
   23       10.529483   0.000000
   24       11.565840   0.000000
   25       11.773830   0.000000
   26       11.909910   0.000000
   27       13.767085   0.000000
   28       14.788766   0.000000
   29       15.332752   0.000000
   30       15.435968   0.000000
   31       17.047723   0.000000
   32       17.262275   0.000000
 
  0.3333333E+00  0.3333333E+00  0.0000000E+00  0.1481481E+00
    1      -19.219477   1.000000
    2      -19.218995   1.000000
    3      -19.194241   1.000000
    4      -19.181890   1.000000
    5      -19.167175   1.000000
    6       -7.974510   1.000000
    7       -7.327561   1.000000
    8       -3.403671   1.000000
    9       -2.429027   1.000000
   10       -0.044351   1.000000
   11        0.252945   1.000000
   12        1.016543   1.000000
   13        1.137464   1.000000
   14        4.248583   0.000000
   15        4.935699   0.000000
   16        5.821844   0.000000
   17        6.067067   0.000000
   18        8.782439   0.000000
   19        8.922489   0.000000
   20        9.825491   0.000000
   21       10.510106   0.000000
   22       10.826619   0.000000
   23       12.741819   0.000000
   24       13.246775   0.000000
   25       13.688312   0.000000
   26       14.276433   0.000000
   27       14.344142   0.000000
   28       14.856470   0.000000
   29       16.016982   0.000000
   30       16.292085   0.000000
   31       16.786864   0.000000
   32       16.977014   0.000000
 
  0.0000000E+00  0.0000000E+00  0.3333333E+00  0.7407407E-01
    1      -19.211073   1.000000
    2      -19.211073   1.000000
    3      -19.209704   1.000000
    4      -19.200001   1.000000
    5      -19.159807   1.000000
    6       -8.810296   1.000000
    7       -7.989164   1.000000
    8       -2.414536   1.000000
    9       -0.208089   1.000000
   10        0.790638   1.000000
   11        0.790638   1.000000
   12        2.408792   1.000000
   13        2.408792   1.000000
   14        4.026839   0.000000
   15        4.793547   0.000000
   16        5.094208   0.000000
   17        5.805277   0.000000
   18        7.582397   0.000000
   19        7.582397   0.000000
   20        9.642960   0.000000
   21        9.958483   0.000000
   22        9.958483   0.000000
   23       10.370489   0.000000
   24       10.814917   0.000000
   25       12.396934   0.000000
   26       13.813985   0.000000
   27       13.813985   0.000000
   28       13.999911   0.000000
   29       14.239175   0.000000
   30       14.688797   0.000000
   31       16.145977   0.000000
   32       16.145978   0.000000
 
  0.3333333E+00  0.0000000E+00  0.3333333E+00  0.2962963E+00
    1      -19.220125   1.000000
    2      -19.210496   1.000000
    3      -19.202762   1.000000
    4      -19.190070   1.000000
    5      -19.163334   1.000000
    6       -8.292996   1.000000
    7       -7.776697   1.000000
    8       -3.108972   1.000000
    9       -2.199758   1.000000
   10        0.549329   1.000000
   11        1.168587   1.000000
   12        2.145804   1.000000
   13        2.619270   1.000000
   14        3.284040   0.018588
   15        4.663510   0.000000
   16        6.768063   0.000000
   17        7.126664   0.000000
   18        7.169835   0.000000
   19        8.166150   0.000000
   20        8.693242   0.000000
   21        9.849181   0.000000
   22       10.278743   0.000000
   23       11.645114   0.000000
   24       11.686794   0.000000
   25       11.751852   0.000000
   26       12.735235   0.000000
   27       13.393767   0.000000
   28       13.737772   0.000000
   29       14.526962   0.000000
   30       15.099429   0.000000
   31       17.015771   0.000000
   32       17.269905   0.000000
 
  0.3333333E+00  0.3333333E+00  0.3333333E+00  0.2962963E+00
    1      -19.219572   1.000000
    2      -19.219073   1.000000
    3      -19.194103   1.000000
    4      -19.181894   1.000000
    5      -19.167159   1.000000
    6       -7.821818   1.000000
    7       -7.475519   1.000000
    8       -3.221336   1.000000
    9       -2.741468   1.000000
   10       -0.476733   1.000000
   11        0.198466   1.000000
   12        1.169447   1.000000
   13        1.292299   1.000000
   14        4.706872   0.000000
   15        5.653113   0.000000
   16        6.127513   0.000000
   17        7.594915   0.000000
   18        7.989589   0.000000
   19        8.905297   0.000000
   20        9.113357   0.000000
   21        9.590753   0.000000
   22       10.355987   0.000000
   23       11.412385   0.000000
   24       12.111504   0.000000
   25       12.449146   0.000000
   26       13.925886   0.000000
   27       14.668843   0.000000
   28       15.215115   0.000000
   29       15.409221   0.000000
   30       16.100825   0.000000
   31       16.842575   0.000000
   32       17.432670   0.000000
