   4
   1   1
     5.786254597139999    -0.000000000000000    -0.000000000000000
    -0.000000000000000     5.225754189060000    -0.000000000000000
    -0.000000000000000    -0.000000000000000     5.504457239730000
   1   2
    -0.023021140140000    -0.000000000000000    -0.000000000000000
    -0.000000000000000    -0.023021140140000    -0.000000000000000
    -0.000000000000000    -0.000000000000000    -3.426572393730000
   1   3
    -5.994002749290565    -0.000000000000000    -0.000000000000000
    -0.000000000000000     0.155755917548029    -0.000000000000000
    -0.000000000000000    -0.000000000000000    -0.702775035851406
   1   4
     0.223781677668915    -0.000000000000000    -0.000000000000000
    -0.000000000000000    -5.370231205433929    -0.000000000000000
    -0.000000000000000    -0.000000000000000    -1.372662826905579
   2   1
    -0.023021140140000    -0.000000000000000    -0.000000000000000
    -0.000000000000000    -0.023021140140000    -0.000000000000000
    -0.000000000000000    -0.000000000000000    -3.426572393730000
   2   2
     5.225754189060000    -0.000000000000000    -0.000000000000000
    -0.000000000000000     5.786254597139999    -0.000000000000000
    -0.000000000000000    -0.000000000000000     5.504457239730000
   2   3
     0.155755917548029    -0.000000000000000    -0.000000000000000
    -0.000000000000000    -5.994002749290565    -0.000000000000000
    -0.000000000000000    -0.000000000000000    -0.702775035851406
   2   4
    -5.370231205433929    -0.000000000000000    -0.000000000000000
    -0.000000000000000     0.223781677668915    -0.000000000000000
    -0.000000000000000    -0.000000000000000    -1.372662826905579
   3   1
    -5.994002749290565    -0.000000000000000    -0.000000000000000
    -0.000000000000000     0.155755917548029    -0.000000000000000
    -0.000000000000000    -0.000000000000000    -0.702775035851406
   3   2
     0.155755917548029    -0.000000000000000    -0.000000000000000
    -0.000000000000000    -5.994002749290565    -0.000000000000000
    -0.000000000000000    -0.000000000000000    -0.702775035851406
   3   3
     6.913267380000000    -0.000000000000000    -0.000000000000000
    -0.000000000000000     6.913267380000000    -0.000000000000000
    -0.000000000000000    -0.000000000000000     4.750188543000000
   3   4
    -1.051481760341885    -0.000000000000000    -0.000000000000000
    -0.000000000000000    -1.051481760341885    -0.000000000000000
    -0.000000000000000    -0.000000000000000    -3.360115623873754
   4   1
     0.223781677668915    -0.000000000000000    -0.000000000000000
    -0.000000000000000    -5.370231205433929    -0.000000000000000
    -0.000000000000000    -0.000000000000000    -1.372662826905579
   4   2
    -5.370231205433929    -0.000000000000000    -0.000000000000000
    -0.000000000000000     0.223781677668915    -0.000000000000000
    -0.000000000000000    -0.000000000000000    -1.372662826905579
   4   3
    -1.051481760341885    -0.000000000000000    -0.000000000000000
    -0.000000000000000    -1.051481760341885    -0.000000000000000
    -0.000000000000000    -0.000000000000000    -3.360115623873754
   4   4
     6.193122946680000    -0.000000000000000    -0.000000000000000
    -0.000000000000000     6.193122946680000    -0.000000000000000
    -0.000000000000000    -0.000000000000000     6.116028208680000
