       N       E                     dE             d eps       ncg     rms          rms(c)
DAV:   1     0.551417301509E+02    0.55142E+02   -0.12924E+04   384   0.699E+02
DAV:   2    -0.133557298416E+02   -0.68497E+02   -0.68388E+02   448   0.914E+01
DAV:   3    -0.146286477697E+02   -0.12729E+01   -0.12729E+01   480   0.180E+01
DAV:   4    -0.146395589792E+02   -0.10911E-01   -0.10911E-01   640   0.145E+00
DAV:   5    -0.146395817055E+02   -0.22726E-04   -0.22726E-04   512   0.614E-02    0.426E+00
DAV:   6    -0.144649499294E+02    0.17463E+00   -0.39891E-01   480   0.131E+00    0.250E+00
DAV:   7    -0.144260670503E+02    0.38883E-01   -0.13668E-01   576   0.114E+00    0.614E-01
DAV:   8    -0.144277391125E+02   -0.16721E-02   -0.12486E-02   576   0.408E-01    0.136E-01
DAV:   9    -0.144290661652E+02   -0.13271E-02   -0.17326E-03   512   0.126E-01    0.709E-02
DAV:  10    -0.144293223402E+02   -0.25617E-03   -0.16582E-04   576   0.439E-02    0.324E-02
DAV:  11    -0.144294539124E+02   -0.13157E-03   -0.17166E-04   512   0.358E-02    0.667E-03
DAV:  12    -0.144294604401E+02   -0.65277E-05   -0.12563E-05   544   0.136E-02    0.178E-03
DAV:  13    -0.144294608577E+02   -0.41764E-06   -0.33162E-07   672   0.193E-03    0.886E-04
DAV:  14    -0.144294610913E+02   -0.23360E-06   -0.51996E-08   512   0.111E-03    0.156E-04
DAV:  15    -0.144294610907E+02    0.67757E-09   -0.43026E-09   480   0.298E-04
   1 F= -.14429461E+02 E0= -.14427958E+02  d E =-.300642E-02
 Linear response reoptimize wavefunctions
DAV:   1    -0.144294611102E+02   -0.19586E-07   -0.81262E-10   576   0.108E-04
DAV:   2    -0.144294611102E+02   -0.90949E-12   -0.50650E-12   512   0.990E-06
 Linear response DOF=           7
 Linear response progress:
  Degree of freedom:   1/  7
       N       E                     dE             d eps       ncg     rms          rms(c)
RMM:   1    -0.120795966291E-01   -0.12080E-01    0.28071E-03  1504   0.437E-01
RMM:   2    -0.110290106436E-01    0.10506E-02   -0.15453E-03  1198   0.111E-01    0.431E-02
RMM:   3    -0.109328082273E-01    0.96202E-04   -0.83017E-05  1259   0.283E-02    0.243E-02
RMM:   4    -0.109141023645E-01    0.18706E-04   -0.10623E-05  1223   0.153E-02    0.284E-03
RMM:   5    -0.109139570630E-01    0.14530E-06   -0.73439E-07  1308   0.424E-03    0.131E-03
RMM:   6    -0.109134256045E-01    0.53146E-06    0.90994E-08  1253   0.146E-03    0.302E-04
RMM:   7    -0.109134678217E-01   -0.42217E-07    0.67608E-07  1310   0.603E-04    0.927E-05
 Linear response progress:
  Degree of freedom:   2/  7
       N       E                     dE             d eps       ncg     rms          rms(c)
RMM:   1    -0.112728584217E-01   -0.11273E-01    0.15033E-02  1477   0.323E-01
RMM:   2    -0.108530364235E-01    0.41982E-03   -0.65862E-04  1212   0.821E-02    0.548E-02
RMM:   3    -0.107769917053E-01    0.76045E-04   -0.36789E-05  1287   0.273E-02    0.311E-02
RMM:   4    -0.107201298696E-01    0.56862E-04   -0.12526E-05  1219   0.145E-02    0.321E-03
RMM:   5    -0.107200539753E-01    0.75894E-07   -0.74945E-07  1301   0.397E-03    0.158E-03
 Linear response progress:
  Degree of freedom:   3/  7
       N       E                     dE             d eps       ncg     rms          rms(c)
RMM:   1    -0.136646753385E-01   -0.13665E-01    0.10028E-02  1188   0.424E-01
RMM:   2    -0.122677856176E-01    0.13969E-02   -0.90407E-04   976   0.915E-02    0.799E-02
RMM:   3    -0.122870023201E-01   -0.19217E-04   -0.73450E-05  1020   0.337E-02    0.403E-02
RMM:   4    -0.123163027154E-01   -0.29300E-04   -0.48493E-05  1013   0.220E-02    0.108E-02
RMM:   5    -0.123038102570E-01    0.12492E-04   -0.18393E-05  1009   0.833E-03    0.303E-03
RMM:   6    -0.122993407713E-01    0.44695E-05   -0.10712E-05  1008   0.327E-03    0.108E-03
RMM:   7    -0.122993676193E-01   -0.26848E-07   -0.85480E-06   939   0.154E-03    0.335E-04
RMM:   8    -0.123010110920E-01   -0.16435E-05   -0.81278E-06   952   0.843E-04    0.105E-04
RMM:   9    -0.123010210594E-01   -0.99674E-08   -0.78470E-06  1018   0.407E-04    0.591E-05
RMM:  10    -0.123010169744E-01    0.40850E-08   -0.76986E-06   897   0.237E-04    0.202E-05
RMM:  11    -0.123009688280E-01    0.48146E-07   -0.77118E-06   990   0.158E-04    0.688E-06
RMM:  12    -0.123009695057E-01   -0.67772E-09   -0.76982E-06  1003   0.130E-04    0.237E-06
RMM:  13    -0.123009684777E-01    0.10280E-08   -0.76801E-06   999   0.114E-04    0.180E-06
RMM:  14    -0.123009675177E-01    0.95994E-09   -0.76614E-06   876   0.108E-04    0.842E-07
RMM:  15    -0.123009671436E-01    0.37413E-09   -0.76612E-06   627   0.104E-04    0.592E-07
RMM:  16    -0.123009657160E-01    0.14276E-08   -0.76505E-06   596   0.102E-04    0.192E-07
 Linear response progress:
  Degree of freedom:   4/  7
       N       E                     dE             d eps       ncg     rms          rms(c)
RMM:   1    -0.329462283980E+00   -0.32946E+00    0.38157E-01   742   0.562E+00
RMM:   2    -0.337637620621E+00   -0.81753E-02   -0.73858E-03  1128   0.402E-01    0.587E-02
RMM:   3    -0.337627355845E+00    0.10265E-04   -0.26715E-04  1278   0.723E-02    0.350E-02
RMM:   4    -0.337628122395E+00   -0.76655E-06   -0.37954E-05  1231   0.271E-02    0.405E-03
RMM:   5    -0.337632865356E+00   -0.47430E-05   -0.25901E-06  1400   0.810E-03    0.226E-03
RMM:   6    -0.337625650295E+00    0.72151E-05   -0.59836E-07  1205   0.366E-03    0.569E-04
RMM:   7    -0.337615928570E+00    0.97217E-05   -0.10037E-07  1332   0.142E-03    0.204E-04
RMM:   8    -0.337611988502E+00    0.39401E-05   -0.17422E-08  1320   0.614E-04    0.542E-05
RMM:   9    -0.337612364100E+00   -0.37560E-06    0.18860E-08  1333   0.324E-04    0.159E-05
RMM:  10    -0.337612335514E+00    0.28586E-07    0.57765E-09  1358   0.187E-04    0.113E-05
 Linear response progress:
  Degree of freedom:   5/  7
       N       E                     dE             d eps       ncg     rms          rms(c)
RMM:   1    -0.343659590630E+00   -0.34366E+00    0.22554E-01   602   0.514E+00
RMM:   2    -0.351548770871E+00   -0.78892E-02   -0.68397E-03   890   0.385E-01    0.950E-02
RMM:   3    -0.351721166318E+00   -0.17240E-03   -0.32042E-04   983   0.812E-02    0.484E-02
RMM:   4    -0.351813736138E+00   -0.92570E-04   -0.37884E-05   996   0.274E-02    0.173E-02
RMM:   5    -0.351810179116E+00    0.35570E-05   -0.91066E-06   989   0.141E-02    0.295E-03
RMM:   6    -0.351789856608E+00    0.20323E-04   -0.93947E-07  1045   0.460E-03    0.811E-04
RMM:   7    -0.351785896000E+00    0.39606E-05   -0.53109E-07  1059   0.168E-03    0.501E-04
RMM:   8    -0.351777354744E+00    0.85413E-05   -0.37367E-07   943   0.105E-03    0.114E-04
RMM:   9    -0.351777616456E+00   -0.26171E-06   -0.18452E-07  1060   0.457E-04    0.470E-05
RMM:  10    -0.351777436352E+00    0.18010E-06   -0.36256E-07   963   0.285E-04    0.114E-05
RMM:  11    -0.351777421405E+00    0.14947E-07   -0.62102E-08  1035   0.190E-04    0.886E-06
 Linear response progress:
  Degree of freedom:   6/  7
       N       E                     dE             d eps       ncg     rms          rms(c)
RMM:   1    -0.461745101655E-01   -0.46175E-01    0.85755E-02  1457   0.496E-01
RMM:   2    -0.459679194959E-01    0.20659E-03   -0.12084E-03  1259   0.111E-01    0.754E-02
RMM:   3    -0.460562663624E-01   -0.88347E-04   -0.41975E-05  1243   0.240E-02    0.440E-02
RMM:   4    -0.462891685639E-01   -0.23290E-03   -0.32598E-05  1173   0.187E-02    0.512E-03
RMM:   5    -0.462823424036E-01    0.68262E-05   -0.25957E-06  1245   0.701E-03    0.153E-03
RMM:   6    -0.462802058522E-01    0.21366E-05   -0.17688E-07  1301   0.168E-03    0.644E-04
RMM:   7    -0.462817784681E-01   -0.15726E-05   -0.40537E-08  1174   0.872E-04    0.966E-05
RMM:   8    -0.462819793335E-01   -0.20087E-06    0.64832E-08  1331   0.307E-04    0.525E-05
RMM:   9    -0.462819051330E-01    0.74201E-07    0.18047E-08  1224   0.161E-04    0.102E-05
 Linear response progress:
  Degree of freedom:   7/  7
       N       E                     dE             d eps       ncg     rms          rms(c)
RMM:   1    -0.515759414906E-01   -0.51576E-01    0.87240E-02  1167   0.508E-01
RMM:   2    -0.508648955394E-01    0.71105E-03   -0.14557E-03   988   0.125E-01    0.709E-02
RMM:   3    -0.509676970247E-01   -0.10280E-03   -0.74063E-05  1023   0.330E-02    0.405E-02
RMM:   4    -0.511391271455E-01   -0.17143E-03   -0.64426E-05   970   0.227E-02    0.761E-03
RMM:   5    -0.511274401645E-01    0.11687E-04   -0.28440E-05   974   0.860E-03    0.132E-03
RMM:   6    -0.511279102478E-01   -0.47008E-06   -0.23713E-05  1051   0.251E-03    0.714E-04
RMM:   7    -0.511271273303E-01    0.78292E-06   -0.22702E-05   933   0.124E-03    0.139E-04
RMM:   8    -0.511273771315E-01   -0.24980E-06   -0.22508E-05  1043   0.505E-04    0.714E-05
RMM:   9    -0.511271576815E-01    0.21945E-06   -0.22473E-05   931   0.300E-04    0.250E-05
RMM:  10    -0.511271816662E-01   -0.23985E-07   -0.22455E-05  1001   0.197E-04    0.788E-06
RMM:  11    -0.511272023500E-01   -0.20684E-07   -0.22442E-05  1020   0.141E-04    0.351E-06
RMM:  12    -0.511272145218E-01   -0.12172E-07   -0.22424E-05   902   0.123E-04    0.159E-06
RMM:  13    -0.511272162860E-01   -0.17642E-08   -0.22424E-05   835   0.110E-04    0.487E-07
RMM:  14    -0.511272166267E-01   -0.34070E-09   -0.22429E-05   671   0.103E-04    0.358E-07
RMM:  15    -0.511272146513E-01    0.19754E-08   -0.22415E-05   492   0.100E-04    0.110E-07
 Linear response finished
