 vasp.5.4.4.18Apr17-6-g9f103f2a35 (build Dec 27 2023 19:01:38) complex          
  
 executed on             LinuxIFC date 2024.08.25  14:42:09
 running on   32 total cores
 distrk:  each k-point on   32 cores,    1 groups
 distr:  one band on NCORES_PER_BAND=   1 cores,   32 groups


--------------------------------------------------------------------------------------------------------


 INCAR:
 POTCAR:    PAW_PBE Ga 08Apr2002                  
 POTCAR:    PAW_PBE Bi_d 06Sep2000                
 POTCAR:    PAW_PBE As 22Sep2009                  

 ----------------------------------------------------------------------------- 
|                                                                             |
|           W    W    AA    RRRRR   N    N  II  N    N   GGGG   !!!           |
|           W    W   A  A   R    R  NN   N  II  NN   N  G    G  !!!           |
|           W    W  A    A  R    R  N N  N  II  N N  N  G       !!!           |
|           W WW W  AAAAAA  RRRRR   N  N N  II  N  N N  G  GGG   !            |
|           WW  WW  A    A  R   R   N   NN  II  N   NN  G    G                |
|           W    W  A    A  R    R  N    N  II  N    N   GGGG   !!!           |
|                                                                             |
|      For optimal performance we recommend to set                            |
|        NCORE= 4 - approx SQRT( number of cores)                             |
|      NCORE specifies how many cores store one orbital (NPAR=cpu/NCORE).     |
|      This setting can  greatly improve the performance of VASP for DFT.     |
|      The default,   NCORE=1            might be grossly inefficient         |
|      on modern multi-core architectures or massively parallel machines.     |
|      Do your own testing !!!!                                               |
|      Unfortunately you need to use the default for GW and RPA calculations. |
|      (for HF NCORE is supported but not extensively tested yet)             |
|                                                                             |
 ----------------------------------------------------------------------------- 

 POTCAR:    PAW_PBE Ga 08Apr2002                  
   VRHFIN =Ga: s2p1                                                             
   LEXCH  = PE                                                                  
   EATOM  =    58.8688 eV,    4.3267 Ry                                         
                                                                                
   TITEL  = PAW_PBE Ga 08Apr2002                                                
   LULTRA =        F    use ultrasoft PP ?                                      
   IUNSCR =        1    unscreen: 0-lin 1-nonlin 2-no                           
   RPACOR =    2.170    partial core radius                                     
   POMASS =   69.723; ZVAL   =    3.000    mass and valenz                      
   RCORE  =    2.600    outmost cutoff radius                                   
   RWIGS  =    2.650; RWIGS  =    1.402    wigner-seitz radius (au A)           
   ENMAX  =  134.678; ENMIN  =  101.009 eV                                      
   ICORE  =        3    local potential                                         
   LCOR   =        T    correct aug charges                                     
   LPAW   =        T    paw PP                                                  
   EAUG   =  320.264                                                            
   DEXC   =    0.000                                                            
   RMAX   =    2.658    core radius for proj-oper                               
   RAUG   =    1.300    factor for augmentation sphere                          
   RDEP   =    2.684    radius for radial grids                                 
   RDEPT  =    2.308    core radius for aug-charge                              
                                                                                
   Atomic configuration                                                         
   10 entries                                                                   
     n  l   j            E        occ.                                          
     1  0  0.50    -10228.7830   2.0000                                         
     2  0  0.50     -1262.1604   2.0000                                         
     2  1  1.50     -1098.6333   6.0000                                         
     3  0  0.50      -148.1110   2.0000                                         
     3  1  1.50       -98.8436   6.0000                                         
     3  2  2.50       -19.1549  10.0000                                         
     4  0  0.50        -8.9483   2.0000                                         
     4  1  0.50        -2.5791   1.0000                                         
     4  2  1.50         5.4423   0.0000                                         
     4  3  2.50        -2.7416   0.0000                                         
   Description                                                                  
     l       E           TYP  RCUT    TYP  RCUT                                 
     0     -8.9483097     23  2.600                                             
     0     -5.8232215     23  2.600                                             
     1     -2.5790793     23  2.600                                             
     1      5.2230115     23  2.600                                             
     2      1.3605826     23  2.600                                             
     3     -1.3605826      7  2.600                                             
  local pseudopotential read in
  partial core-charges read in
  partial kinetic energy density read in
  atomic valenz-charges read in
  non local Contribution for L=           0  read in
    real space projection operators read in
  non local Contribution for L=           0  read in
    real space projection operators read in
  non local Contribution for L=           1  read in
    real space projection operators read in
  non local Contribution for L=           1  read in
    real space projection operators read in
  non local Contribution for L=           2  read in
    real space projection operators read in
    PAW grid and wavefunctions read in
 
   number of l-projection  operators is LMAX  =           5
   number of lm-projection operators is LMMAX =          13
 
 POTCAR:    PAW_PBE Bi_d 06Sep2000                
   VRHFIN =Bi:                                                                  
   LEXCH  = PE                                                                  
   EATOM  =  1959.2045 eV,  143.9975 Ry                                         
                                                                                
   TITEL  = PAW_PBE Bi_d 06Sep2000                                              
   LULTRA =        F    use ultrasoft PP ?                                      
   IUNSCR =        1    unscreen: 0-lin 1-nonlin 2-no                           
   RPACOR =    2.200    partial core radius                                     
   POMASS =  208.980; ZVAL   =   15.000    mass and valenz                      
   RCORE  =    2.500    outmost cutoff radius                                   
   RWIGS  =    3.090; RWIGS  =    1.635    wigner-seitz radius (au A)           
   ENMAX  =  242.839; ENMIN  =  182.129 eV                                      
   ICORE  =        3    local potential                                         
   LCOR   =        T    correct aug charges                                     
   LPAW   =        T    paw PP                                                  
   EAUG   =  442.899                                                            
   DEXC   =    0.000                                                            
   RMAX   =    2.551    core radius for proj-oper                               
   RAUG   =    1.300    factor for augmentation sphere                          
   RDEP   =    2.650    radius for radial grids                                 
   RDEPT  =    2.039    core radius for aug-charge                              
                                                                                
   Atomic configuration                                                         
   16 entries                                                                   
     n  l   j            E        occ.                                          
     1  0  0.50    -90639.6581   2.0000                                         
     2  0  0.50    -16282.4666   2.0000                                         
     2  1  1.50    -13922.8286   6.0000                                         
     3  0  0.50     -3930.4763   2.0000                                         
     3  1  1.50     -3256.7013   6.0000                                         
     3  2  2.50     -2581.6168  10.0000                                         
     4  0  0.50      -902.2614   2.0000                                         
     4  1  1.50      -681.5915   6.0000                                         
     4  2  2.50      -429.8249  10.0000                                         
     4  3  3.50      -152.6004  14.0000                                         
     5  0  0.50      -157.7156   2.0000                                         
     5  1  1.50       -95.8054   6.0000                                         
     5  2  2.50       -27.0806  10.0000                                         
     6  0  0.50       -14.4732   2.0000                                         
     6  1  1.50        -4.5702   3.0000                                         
     5  3  2.50        -2.7212   0.0000                                         
   Description                                                                  
     l       E           TYP  RCUT    TYP  RCUT                                 
     2    -27.0805982     23  2.500                                             
     2     -1.3605826     23  2.500                                             
     0    -14.4732271     23  2.500                                             
     0      6.8029130     23  2.500                                             
     1     -4.5701651     23  2.500                                             
     1     13.6058260     23  2.500                                             
     3     -1.3605826      7  2.500                                             
  local pseudopotential read in
  partial core-charges read in
  partial kinetic energy density read in
  atomic valenz-charges read in
  non local Contribution for L=           2  read in
    real space projection operators read in
  non local Contribution for L=           2  read in
    real space projection operators read in
  non local Contribution for L=           0  read in
    real space projection operators read in
  non local Contribution for L=           0  read in
    real space projection operators read in
  non local Contribution for L=           1  read in
    real space projection operators read in
  non local Contribution for L=           1  read in
    real space projection operators read in
    PAW grid and wavefunctions read in
 
   number of l-projection  operators is LMAX  =           6
   number of lm-projection operators is LMMAX =          18
 
 POTCAR:    PAW_PBE As 22Sep2009                  
   VRHFIN =As: s2p3                                                             
   LEXCH  = PE                                                                  
   EATOM  =   170.1867 eV,   12.5084 Ry                                         
                                                                                
   TITEL  = PAW_PBE As 22Sep2009                                                
   LULTRA =        F    use ultrasoft PP ?                                      
   IUNSCR =        1    unscreen: 0-lin 1-nonlin 2-no                           
   RPACOR =    1.900    partial core radius                                     
   POMASS =   74.922; ZVAL   =    5.000    mass and valenz                      
   RCORE  =    2.100    outmost cutoff radius                                   
   RWIGS  =    2.300; RWIGS  =    1.217    wigner-seitz radius (au A)           
   ENMAX  =  208.702; ENMIN  =  156.526 eV                                      
   ICORE  =        3    local potential                                         
   LCOR   =        T    correct aug charges                                     
   LPAW   =        T    paw PP                                                  
   EAUG   =  462.758                                                            
   DEXC   =    0.000                                                            
   RMAX   =    2.144    core radius for proj-oper                               
   RAUG   =    1.300    factor for augmentation sphere                          
   RDEP   =    2.140    radius for radial grids                                 
   RDEPT  =    1.956    core radius for aug-charge                              
                                                                                
   Atomic configuration                                                         
   10 entries                                                                   
     n  l   j            E        occ.                                          
     1  0  0.50    -11718.0418   2.0000                                         
     2  0  0.50     -1486.5454   2.0000                                         
     2  1  1.50     -1303.3889   6.0000                                         
     3  0  0.50      -190.2849   2.0000                                         
     3  1  1.50      -133.6555   6.0000                                         
     3  2  2.50       -40.6443  10.0000                                         
     4  0  0.50       -14.4936   2.0000                                         
     4  1  0.50        -5.1947   3.0000                                         
     4  2  1.50        -5.4423   0.0000                                         
     4  3  2.50        -5.4423   0.0000                                         
   Description                                                                  
     l       E           TYP  RCUT    TYP  RCUT                                 
     0    -14.4935570     23  2.100                                             
     0    -11.9212055     23  2.100                                             
     1     -5.1947127     23  2.100                                             
     1     27.2116520     23  2.100                                             
     2     -5.4423304     23  2.100                                             
     3     -1.3605826      7  2.100                                             
  local pseudopotential read in
  partial core-charges read in
  partial kinetic energy density read in
  atomic valenz-charges read in
  non local Contribution for L=           0  read in
    real space projection operators read in
  non local Contribution for L=           0  read in
    real space projection operators read in
  non local Contribution for L=           1  read in
    real space projection operators read in
  non local Contribution for L=           1  read in
    real space projection operators read in
  non local Contribution for L=           2  read in
    real space projection operators read in
    PAW grid and wavefunctions read in
 
   number of l-projection  operators is LMAX  =           5
   number of lm-projection operators is LMMAX =          13
 
  PAW_PBE Ga 08Apr2002                  :
 energy of atom  1       EATOM=  -58.8688
 kinetic energy error for atom=    0.0000 (will be added to EATOM!!)
  PAW_PBE Bi_d 06Sep2000                :
 energy of atom  2       EATOM=-1959.2045
 kinetic energy error for atom=    0.0049 (will be added to EATOM!!)
  PAW_PBE As 22Sep2009                  :
 energy of atom  3       EATOM= -170.1867
 kinetic energy error for atom=    0.0005 (will be added to EATOM!!)
 
 
 POSCAR: Ga Bi As                                
  positions in direct lattice
  No initial velocities read in
 exchange correlation table for  LEXCH =        8
   RHO(1)=    0.500       N(1)  =     2000
   RHO(2)=  100.500       N(2)  =     4000
 


--------------------------------------------------------------------------------------------------------


 ion  position               nearest neighbor table
   1  0.500  0.000  0.726-   4 2.56   4 2.56   3 2.73   3 2.73
   2  0.000  0.500  0.274-   4 2.56   4 2.56   3 2.73   3 2.73
   3  0.000  0.000  0.000-   1 2.73   1 2.73   2 2.73   2 2.73
   4  0.500  0.500  0.500-   2 2.56   2 2.56   1 2.56   1 2.56
 
  LATTYP: Found a simple tetragonal cell.
 ALAT       =     4.3001408577
 C/A-ratio  =     1.4292232167
  
  Lattice vectors:
  
 A1 = (   4.3001408577,   0.0000000000,   0.0000000000)
 A2 = (   0.0000000000,   4.3001408577,   0.0000000000)
 A3 = (   0.0000000000,   0.0000000000,   6.1458611488)


Analysis of symmetry for initial positions (statically):
=====================================================================
 Subroutine PRICEL returns:
 Original cell was already a primitive cell.
 

 Routine SETGRP: Setting up the symmetry group for a 
 simple tetragonal supercell.


 Subroutine GETGRP returns: Found  8 space group operations
 (whereof  8 operations were pure point group operations)
 out of a pool of 16 trial point group operations.


The static configuration has the point symmetry D_2d.


Analysis of symmetry for dynamics (positions and initial velocities):
=====================================================================
 Subroutine PRICEL returns:
 Original cell was already a primitive cell.
 

 Routine SETGRP: Setting up the symmetry group for a 
 simple tetragonal supercell.


 Subroutine GETGRP returns: Found  8 space group operations
 (whereof  8 operations were pure point group operations)
 out of a pool of 16 trial point group operations.


The dynamic configuration has the point symmetry D_2d.


 Subroutine INISYM returns: Found  8 space group operations
 (whereof  8 operations are pure point group operations),
 and found     1 'primitive' translations

 
 
 KPOINTS: K-Spacing Value to Generate K-Mesh: 0.04

Automatic generation of k-mesh.
Space group operators:
 irot       det(A)        alpha          n_x          n_y          n_z        tau_x        tau_y        tau_z
    1     1.000000     0.000001     1.000000     0.000000     0.000000     0.000000     0.000000     0.000000
    2    -1.000000    90.000000     0.000000     0.000000    -1.000000     0.000000     0.000000     0.000000
    3     1.000000   180.000000     0.000000     0.000000     1.000000     0.000000     0.000000     0.000000
    4    -1.000000    90.000000     0.000000     0.000000     1.000000     0.000000     0.000000     0.000000
    5    -1.000000   180.000000     0.000000     1.000000     0.000000     0.000000     0.000000     0.000000
    6     1.000000   180.000000     0.707107     0.707107     0.000000     0.000000     0.000000     0.000000
    7    -1.000000   180.000000     1.000000     0.000000     0.000000     0.000000     0.000000     0.000000
    8     1.000000   180.000000     0.707107    -0.707107     0.000000     0.000000     0.000000     0.000000
 
 Subroutine IBZKPT returns following result:
 ===========================================
 
 Found      6 irreducible k-points:
 
 Following reciprocal coordinates:
            Coordinates               Weight
  0.000000  0.000000  0.000000      1.000000
  0.333333  0.000000  0.000000      4.000000
  0.333333  0.333333  0.000000      4.000000
  0.000000  0.000000  0.333333      2.000000
  0.333333  0.000000  0.333333      8.000000
  0.333333  0.333333  0.333333      8.000000
 
 Following cartesian coordinates:
            Coordinates               Weight
  0.000000  0.000000  0.000000      1.000000
  0.077517  0.000000  0.000000      4.000000
  0.077517  0.077517  0.000000      4.000000
  0.000000  0.000000  0.054237      2.000000
  0.077517  0.000000  0.054237      8.000000
  0.077517  0.077517  0.054237      8.000000
 
 
 Subroutine IBZKPT_HF returns following result:
 ==============================================
 
 Found     27 k-points in 1st BZ
 the following     27 k-points will be used (e.g. in the exchange kernel)
 Following reciprocal coordinates:   # in IRBZ
  0.000000  0.000000  0.000000    0.03703704   1 t-inv F
  0.333333  0.000000  0.000000    0.03703704   2 t-inv F
  0.333333  0.333333  0.000000    0.03703704   3 t-inv F
  0.000000  0.000000  0.333333    0.03703704   4 t-inv F
  0.333333  0.000000  0.333333    0.03703704   5 t-inv F
  0.333333  0.333333  0.333333    0.03703704   6 t-inv F
  0.000000 -0.333333  0.000000    0.03703704   2 t-inv F
 -0.333333  0.000000  0.000000    0.03703704   2 t-inv F
  0.000000  0.333333  0.000000    0.03703704   2 t-inv F
  0.333333 -0.333333  0.000000    0.03703704   3 t-inv F
 -0.333333 -0.333333  0.000000    0.03703704   3 t-inv F
 -0.333333  0.333333  0.000000    0.03703704   3 t-inv F
  0.000000  0.000000 -0.333333    0.03703704   4 t-inv F
  0.000000 -0.333333 -0.333333    0.03703704   5 t-inv F
 -0.333333  0.000000  0.333333    0.03703704   5 t-inv F
  0.000000  0.333333 -0.333333    0.03703704   5 t-inv F
  0.333333 -0.333333 -0.333333    0.03703704   6 t-inv F
 -0.333333 -0.333333  0.333333    0.03703704   6 t-inv F
 -0.333333  0.333333 -0.333333    0.03703704   6 t-inv F
  0.333333 -0.333333  0.333333    0.03703704   6 t-inv F
  0.333333  0.333333 -0.333333    0.03703704   6 t-inv F
 -0.333333  0.333333  0.333333    0.03703704   6 t-inv F
 -0.333333 -0.333333 -0.333333    0.03703704   6 t-inv F
 -0.333333  0.000000 -0.333333    0.03703704   5 t-inv T
  0.000000  0.333333  0.333333    0.03703704   5 t-inv T
  0.333333  0.000000 -0.333333    0.03703704   5 t-inv T
  0.000000 -0.333333  0.333333    0.03703704   5 t-inv T


--------------------------------------------------------------------------------------------------------




 Dimension of arrays:
   k-points           NKPTS =      6   k-points in BZ     NKDIM =      6   number of bands    NBANDS=     32
   number of dos      NEDOS =    301   number of ions     NIONS =      4
   non local maximal  LDIM  =      6   non local SUM 2l+1 LMDIM =     18
   total plane-waves  NPLWV =  49152
   max r-space proj   IRMAX =      1   max aug-charges    IRDMAX=  31281
   dimension x,y,z NGX =    32 NGY =   32 NGZ =   48
   dimension x,y,z NGXF=    64 NGYF=   64 NGZF=   96
   support grid    NGXF=    64 NGYF=   64 NGZF=   96
   ions per type =               2   1   1
   NGX,Y,Z   is equivalent  to a cutoff of  12.37, 12.37, 12.98 a.u.
   NGXF,Y,Z  is equivalent  to a cutoff of  24.74, 24.74, 25.97 a.u.

 SYSTEM =  CsAs                                    
 POSCAR =  Ga Bi As                                

 Startparameter for this run:
   NWRITE =      2    write-flag & timer
   PREC   = accura    normal or accurate (medium, high low for compatibility)
   ISTART =      0    job   : 0-new  1-cont  2-samecut
   ICHARG =      2    charge: 1-file 2-atom 10-const
   ISPIN  =      1    spin polarized calculation?
   LNONCOLLINEAR =      F non collinear calculations
   LSORBIT =      F    spin-orbit coupling
   INIWAV =      1    electr: 0-lowe 1-rand  2-diag
   LASPH  =      F    aspherical Exc in radial PAW
   METAGGA=      F    non-selfconsistent MetaGGA calc.

 Electronic Relaxation 1
   ENCUT  =  500.0 eV  36.75 Ry    6.06 a.u.   7.84  7.84 11.21*2*pi/ulx,y,z
   ENINI  =  500.0     initial cutoff
   ENAUG  =  462.8 eV  augmentation charge cutoff
   NELM   =     60;   NELMIN=  2; NELMDL= -5     # of ELM steps 
   EDIFF  = 0.1E-06   stopping-criterion for ELM
   LREAL  =      F    real-space projection
   NLSPLINE    = F    spline interpolate recip. space projectors
   LCOMPAT=      F    compatible to vasp.4.4
   GGA_COMPAT  = T    GGA compatible to vasp.4.4-vasp.4.6
   LMAXPAW     = -100 max onsite density
   LMAXMIX     =    2 max onsite mixed and CHGCAR
   VOSKOWN=      0    Vosko Wilk Nusair interpolation
   ROPT   =    0.00000   0.00000   0.00000
 Ionic relaxation
   EDIFFG = -.1E-01   stopping-criterion for IOM
   NSW    =      1    number of steps for IOM
   NBLOCK =      1;   KBLOCK =      1    inner block; outer block 
   IBRION =      8    ionic relax: 0-MD 1-quasi-New 2-CG
   NFREE  =      0    steps in history (QN), initial steepest desc. (CG)
   ISIF   =      2    stress and relaxation
   IWAVPR =     11    prediction:  0-non 1-charg 2-wave 3-comb
   ISYM   =      2    0-nonsym 1-usesym 2-fastsym
   LCORR  =      T    Harris-Foulkes like correction to forces

   POTIM  = 0.5000    time-step for ionic-motion
   TEIN   =    0.0    initial temperature
   TEBEG  =    0.0;   TEEND  =   0.0 temperature during run
   SMASS  =  -3.00    Nose mass-parameter (am)
   estimated Nose-frequenzy (Omega)   =  0.10E-29 period in steps =****** mass=  -0.423E-27a.u.
   SCALEE = 1.0000    scale energy and forces
   NPACO  =    256;   APACO  = 16.0  distance and # of slots for P.C.
   PSTRESS=    0.0 pullay stress

  Mass of Ions in am
   POMASS =  69.72208.98 74.92
  Ionic Valenz
   ZVAL   =   3.00 15.00  5.00
  Atomic Wigner-Seitz radii
   RWIGS  =  -1.00 -1.00 -1.00
  virtual crystal weights 
   VCA    =   1.00  1.00  1.00
   NELECT =      26.0000    total number of electrons
   NUPDOWN=      -1.0000    fix difference up-down

 DOS related values:
   EMIN   =  10.00;   EMAX   =-10.00  energy-range for DOS
   EFERMI =   0.00
   ISMEAR =     0;   SIGMA  =   0.05  broadening in eV -4-tet -1-fermi 0-gaus

 Electronic relaxation 2 (details)
   IALGO  =     38    algorithm
   LDIAG  =      T    sub-space diagonalisation (order eigenvalues)
   LSUBROT=      F    optimize rotation matrix (better conditioning)
   TURBO    =      0    0=normal 1=particle mesh
   IRESTART =      0    0=no restart 2=restart with 2 vectors
   NREBOOT  =      0    no. of reboots
   NMIN     =      0    reboot dimension
   EREF     =   0.00    reference energy to select bands
   IMIX   =      4    mixing-type and parameters
     AMIX     =   0.40;   BMIX     =  1.00
     AMIX_MAG =   1.60;   BMIX_MAG =  1.00
     AMIN     =   0.10
     WC   =   100.;   INIMIX=   1;  MIXPRE=   1;  MAXMIX= -45

 Intra band minimization:
   WEIMIN = 0.0010     energy-eigenvalue tresh-hold
   EBREAK =  0.78E-09  absolut break condition
   DEPER  =   0.30     relativ break condition  

   TIME   =   0.40     timestep for ELM

  volume/ion in A,a.u.               =      28.41       191.73
  Fermi-wavevector in a.u.,A,eV,Ry     =   1.001267  1.892120 13.640326  1.002536
  Thomas-Fermi vector in A             =   2.133678
 
 Write flags
   LWAVE        =      F    write WAVECAR
   LDOWNSAMPLE  =      F    k-point downsampling of WAVECAR
   LCHARG       =      F    write CHGCAR
   LVTOT        =      F    write LOCPOT, total local potential
   LVHAR        =      F    write LOCPOT, Hartree potential only
   LELF         =      F    write electronic localiz. function (ELF)
   LORBIT       =      0    0 simple, 1 ext, 2 COOP (PROOUT), +10 PAW based schemes


 Dipole corrections
   LMONO  =      F    monopole corrections only (constant potential shift)
   LDIPOL =      F    correct potential (dipole corrections)
   IDIPOL =      0    1-x, 2-y, 3-z, 4-all directions 
   EPSILON=  1.0000000 bulk dielectric constant

 Exchange correlation treatment:
   GGA     =    PE    GGA type
   LEXCH   =     8    internal setting for exchange type
   VOSKOWN=      0    Vosko Wilk Nusair interpolation
   LHFCALC =     F    Hartree Fock is set to
   LHFONE  =     F    Hartree Fock one center treatment
   AEXX    =    0.0000 exact exchange contribution

 Linear response parameters
   LEPSILON=     F    determine dielectric tensor
   LRPA    =     F    only Hartree local field effects (RPA)
   LNABLA  =     F    use nabla operator in PAW spheres
   LVEL    =     F    velocity operator in full k-point grid
   LINTERFAST=   F  fast interpolation
   KINTER  =     0    interpolate to denser k-point grid
   CSHIFT  =0.1000    complex shift for real part using Kramers Kronig
   OMEGAMAX=  -1.0    maximum frequency
   DEG_THRESHOLD= 0.2000000E-02 threshold for treating states as degnerate
   RTIME   =   -0.100 relaxation time in fs
  (WPLASMAI=    0.000 imaginary part of plasma frequency in eV, 0.658/RTIME)
   DFIELD  = 0.0000000 0.0000000 0.0000000 field for delta impulse in time
 
 Orbital magnetization related:
   ORBITALMAG=     F  switch on orbital magnetization
   LCHIMAG   =     F  perturbation theory with respect to B field
   DQ        =  0.001000  dq finite difference perturbation B field
   LLRAUG    =     F  two centre corrections for induced B field



--------------------------------------------------------------------------------------------------------


 linear response using symmetry
 charge density and potential will be updated during run
 non-spin polarized calculation
 Variant of blocked Davidson
 Davidson routine will perform the subspace rotation
 perform sub-space diagonalisation
    after iterative eigenvector-optimisation
 modified Broyden-mixing scheme, WC =      100.0
 initial mixing is a Kerker type mixing with AMIX =  0.4000 and BMIX =      1.0000
 Hartree-type preconditioning will be used
 using additional bands           19
 reciprocal scheme for non local part
 use partial core corrections
 calculate Harris-corrections to forces 
   (improved forces if not selfconsistent)
 use gradient corrections 
 use of overlap-Matrix (Vanderbilt PP)
 Gauss-broadening in eV      SIGMA  =   0.05


--------------------------------------------------------------------------------------------------------


  energy-cutoff  :      500.00
  volume of cell :      113.64
      direct lattice vectors                 reciprocal lattice vectors
     4.300140858  0.000000000  0.000000000     0.232550522  0.000000000  0.000000000
     0.000000000  4.300140858  0.000000000     0.000000000  0.232550522  0.000000000
     0.000000000  0.000000000  6.145861149     0.000000000  0.000000000  0.162711128

  length of vectors
     4.300140858  4.300140858  6.145861149     0.232550522  0.232550522  0.162711128


 
 k-points in units of 2pi/SCALE and weight: K-Spacing Value to Generate K-Mesh: 0.04
   0.00000000  0.00000000  0.00000000       0.037
   0.07751684  0.00000000  0.00000000       0.148
   0.07751684  0.07751684  0.00000000       0.148
   0.00000000  0.00000000  0.05423704       0.074
   0.07751684  0.00000000  0.05423704       0.296
   0.07751684  0.07751684  0.05423704       0.296
 
 k-points in reciprocal lattice and weights: K-Spacing Value to Generate K-Mesh: 0.04
   0.00000000  0.00000000  0.00000000       0.037
   0.33333333  0.00000000  0.00000000       0.148
   0.33333333  0.33333333  0.00000000       0.148
   0.00000000  0.00000000  0.33333333       0.074
   0.33333333  0.00000000  0.33333333       0.296
   0.33333333  0.33333333  0.33333333       0.296
 
 position of ions in fractional coordinates (direct lattice) 
   0.50000000  0.00000000  0.72573602
   0.00000000  0.50000000  0.27426400
   0.00000000  0.00000000  0.00000000
   0.50000000  0.50000000  0.50000000
 
 position of ions in cartesian coordinates  (Angst):
   2.15007043  0.00000000  4.46027279
   0.00000000  2.15007043  1.68558848
   0.00000000  0.00000000  0.00000000
   2.15007043  2.15007043  3.07293057
 


--------------------------------------------------------------------------------------------------------


 k-point  1 :   0.0000 0.0000 0.0000  plane waves:    2879
 k-point  2 :   0.3333 0.0000 0.0000  plane waves:    2886
 k-point  3 :   0.3333 0.3333 0.0000  plane waves:    2883
 k-point  4 :   0.0000 0.0000 0.3333  plane waves:    2874
 k-point  5 :   0.3333 0.0000 0.3333  plane waves:    2890
 k-point  6 :   0.3333 0.3333 0.3333  plane waves:    2893

 maximum and minimum number of plane-waves per node :      2893     2874

 maximum number of plane-waves:      2893
 maximum index in each direction: 
   IXMAX=    7   IYMAX=    7   IZMAX=   11
   IXMIN=   -8   IYMIN=   -8   IZMIN=  -11


 serial   3D FFT for wavefunctions
 parallel 3D FFT for charge:
    minimum data exchange during FFTs selected (reduces bandwidth)


 total amount of memory used by VASP MPI-rank0    41488. kBytes
=======================================================================

   base      :      30000. kBytes
   nonl-proj :       7734. kBytes
   fftplans  :        626. kBytes
   grid      :       2781. kBytes
   one-center:         62. kBytes
   wavefun   :        285. kBytes
 
     INWAV:  cpu time    0.0000: real time    0.0000
 Broyden mixing: mesh for mixing (old mesh)
   NGX = 15   NGY = 15   NGZ = 23
  (NGX  = 64   NGY  = 64   NGZ  = 96)
  gives a total of   5175 points

 initial charge density was supplied:
 charge density of overlapping atoms calculated
 number of electron      26.0000000 magnetization 
 keeping initial charge density in first step


--------------------------------------------------------------------------------------------------------


 Maximum index for augmentation-charges         1186 (set IRDMAX)


--------------------------------------------------------------------------------------------------------


 First call to EWALD:  gamma=   0.366
 Maximum number of real-space cells 3x 3x 2
 Maximum number of reciprocal cells 2x 2x 3

    FEWALD:  cpu time    0.0016: real time    0.0016


--------------------------------------- Iteration      1(   1)  ---------------------------------------


    POTLOK:  cpu time    0.0139: real time    0.0166
    SETDIJ:  cpu time    0.0062: real time    0.0063
     EDDAV:  cpu time    0.1153: real time    0.1160
       DOS:  cpu time    0.0009: real time    0.0009
    --------------------------------------------
      LOOP:  cpu time    0.1363: real time    0.1399

 eigenvalue-minimisations  :   384
 total energy-change (2. order) : 0.5514173E+02  (-0.1292445E+04)
 number of electron      26.0000000 magnetization 
 augmentation part       26.0000000 magnetization 

 Free energy of the ion-electron system (eV)
  ---------------------------------------------------
  alpha Z        PSCENC =        64.20128509
  Ewald energy   TEWEN  =     -1439.91766544
  -Hartree energ DENC   =      -749.41397116
  -exchange      EXHF   =         0.00000000
  -V(xc)+E(xc)   XCENC  =        -1.78998093
  PAW double counting   =      1946.54768465    -1848.13466329
  entropy T*S    EENTRO =        -0.00572404
  eigenvalues    EBANDS =      -163.46845616
  atomic energy  EATOM  =      2247.12322143
  Solvation  Ediel_sol  =         0.00000000
  ---------------------------------------------------
  free energy    TOTEN  =        55.14173015 eV

  energy without entropy =       55.14745419  energy(sigma->0) =       55.14459217


--------------------------------------------------------------------------------------------------------




--------------------------------------- Iteration      1(   2)  ---------------------------------------


     EDDAV:  cpu time    0.1315: real time    0.1393
       DOS:  cpu time    0.0005: real time    0.0005
    --------------------------------------------
      LOOP:  cpu time    0.1320: real time    0.1398

 eigenvalue-minimisations  :   448
 total energy-change (2. order) :-0.6849746E+02  (-0.6838754E+02)
 number of electron      26.0000000 magnetization 
 augmentation part       26.0000000 magnetization 

 Free energy of the ion-electron system (eV)
  ---------------------------------------------------
  alpha Z        PSCENC =        64.20128509
  Ewald energy   TEWEN  =     -1439.91766544
  -Hartree energ DENC   =      -749.41397116
  -exchange      EXHF   =         0.00000000
  -V(xc)+E(xc)   XCENC  =        -1.78998093
  PAW double counting   =      1946.54768465    -1848.13466329
  entropy T*S    EENTRO =        -0.00202024
  eigenvalues    EBANDS =      -231.96961995
  atomic energy  EATOM  =      2247.12322143
  Solvation  Ediel_sol  =         0.00000000
  ---------------------------------------------------
  free energy    TOTEN  =       -13.35572984 eV

  energy without entropy =      -13.35370960  energy(sigma->0) =      -13.35471972


--------------------------------------------------------------------------------------------------------




--------------------------------------- Iteration      1(   3)  ---------------------------------------


     EDDAV:  cpu time    0.1408: real time    0.1414
       DOS:  cpu time    0.0004: real time    0.0004
    --------------------------------------------
      LOOP:  cpu time    0.1412: real time    0.1418

 eigenvalue-minimisations  :   480
 total energy-change (2. order) :-0.1272918E+01  (-0.1272850E+01)
 number of electron      26.0000000 magnetization 
 augmentation part       26.0000000 magnetization 

 Free energy of the ion-electron system (eV)
  ---------------------------------------------------
  alpha Z        PSCENC =        64.20128509
  Ewald energy   TEWEN  =     -1439.91766544
  -Hartree energ DENC   =      -749.41397116
  -exchange      EXHF   =         0.00000000
  -V(xc)+E(xc)   XCENC  =        -1.78998093
  PAW double counting   =      1946.54768465    -1848.13466329
  entropy T*S    EENTRO =        -0.00208999
  eigenvalues    EBANDS =      -233.24246813
  atomic energy  EATOM  =      2247.12322143
  Solvation  Ediel_sol  =         0.00000000
  ---------------------------------------------------
  free energy    TOTEN  =       -14.62864777 eV

  energy without entropy =      -14.62655778  energy(sigma->0) =      -14.62760278


--------------------------------------------------------------------------------------------------------




--------------------------------------- Iteration      1(   4)  ---------------------------------------


     EDDAV:  cpu time    0.2014: real time    0.2022
       DOS:  cpu time    0.0005: real time    0.0005
    --------------------------------------------
      LOOP:  cpu time    0.2019: real time    0.2028

 eigenvalue-minimisations  :   640
 total energy-change (2. order) :-0.1091121E-01  (-0.1091120E-01)
 number of electron      26.0000000 magnetization 
 augmentation part       26.0000000 magnetization 

 Free energy of the ion-electron system (eV)
  ---------------------------------------------------
  alpha Z        PSCENC =        64.20128509
  Ewald energy   TEWEN  =     -1439.91766544
  -Hartree energ DENC   =      -749.41397116
  -exchange      EXHF   =         0.00000000
  -V(xc)+E(xc)   XCENC  =        -1.78998093
  PAW double counting   =      1946.54768465    -1848.13466329
  entropy T*S    EENTRO =        -0.00208999
  eigenvalues    EBANDS =      -233.25337934
  atomic energy  EATOM  =      2247.12322143
  Solvation  Ediel_sol  =         0.00000000
  ---------------------------------------------------
  free energy    TOTEN  =       -14.63955898 eV

  energy without entropy =      -14.63746899  energy(sigma->0) =      -14.63851399


--------------------------------------------------------------------------------------------------------




--------------------------------------- Iteration      1(   5)  ---------------------------------------


     EDDAV:  cpu time    0.1498: real time    0.1504
       DOS:  cpu time    0.0005: real time    0.0005
    CHARGE:  cpu time    0.0131: real time    0.0131
    MIXING:  cpu time    0.0011: real time    0.0012
    --------------------------------------------
      LOOP:  cpu time    0.1645: real time    0.1652

 eigenvalue-minimisations  :   512
 total energy-change (2. order) :-0.2272633E-04  (-0.2272610E-04)
 number of electron      26.0000008 magnetization 
 augmentation part        3.9888832 magnetization 

 Broyden mixing:
  rms(total) = 0.42566E+00    rms(broyden)= 0.42565E+00
  rms(prec ) = 0.63301E+00
  weight for this iteration     100.00

 Free energy of the ion-electron system (eV)
  ---------------------------------------------------
  alpha Z        PSCENC =        64.20128509
  Ewald energy   TEWEN  =     -1439.91766544
  -Hartree energ DENC   =      -749.41397116
  -exchange      EXHF   =         0.00000000
  -V(xc)+E(xc)   XCENC  =        -1.78998093
  PAW double counting   =      1946.54768465    -1848.13466329
  entropy T*S    EENTRO =        -0.00208999
  eigenvalues    EBANDS =      -233.25340207
  atomic energy  EATOM  =      2247.12322143
  Solvation  Ediel_sol  =         0.00000000
  ---------------------------------------------------
  free energy    TOTEN  =       -14.63958171 eV

  energy without entropy =      -14.63749172  energy(sigma->0) =      -14.63853671


--------------------------------------------------------------------------------------------------------




--------------------------------------- Iteration      1(   6)  ---------------------------------------


    POTLOK:  cpu time    0.0085: real time    0.0085
    SETDIJ:  cpu time    0.0028: real time    0.0028
     EDDAV:  cpu time    0.1356: real time    0.1362
       DOS:  cpu time    0.0005: real time    0.0005
    CHARGE:  cpu time    0.0101: real time    0.0101
    MIXING:  cpu time    0.0008: real time    0.0008
    --------------------------------------------
      LOOP:  cpu time    0.1582: real time    0.1589

 eigenvalue-minimisations  :   480
 total energy-change (2. order) : 0.1746318E+00  (-0.3989069E-01)
 number of electron      26.0000008 magnetization 
 augmentation part        4.0008454 magnetization 

 Broyden mixing:
  rms(total) = 0.25027E+00    rms(broyden)= 0.25027E+00
  rms(prec ) = 0.35290E+00
  weight for this iteration     100.00

 eigenvalues of (default mixing * dielectric matrix)
  average eigenvalue GAMMA=   2.2331
  2.2331

 Free energy of the ion-electron system (eV)
  ---------------------------------------------------
  alpha Z        PSCENC =        64.20128509
  Ewald energy   TEWEN  =     -1439.91766544
  -Hartree energ DENC   =      -751.31521680
  -exchange      EXHF   =         0.00000000
  -V(xc)+E(xc)   XCENC  =        -1.43066041
  PAW double counting   =      2125.74587159    -2028.92151082
  entropy T*S    EENTRO =        -0.00212986
  eigenvalues    EBANDS =      -229.94814470
  atomic energy  EATOM  =      2247.12322143
  Solvation  Ediel_sol  =         0.00000000
  ---------------------------------------------------
  free energy    TOTEN  =       -14.46494993 eV

  energy without entropy =      -14.46282007  energy(sigma->0) =      -14.46388500


--------------------------------------------------------------------------------------------------------




--------------------------------------- Iteration      1(   7)  ---------------------------------------


    POTLOK:  cpu time    0.0084: real time    0.0084
    SETDIJ:  cpu time    0.0027: real time    0.0027
     EDDAV:  cpu time    0.1725: real time    0.1733
       DOS:  cpu time    0.0005: real time    0.0005
    CHARGE:  cpu time    0.0101: real time    0.0101
    MIXING:  cpu time    0.0006: real time    0.0006
    --------------------------------------------
      LOOP:  cpu time    0.1947: real time    0.1956

 eigenvalue-minimisations  :   576
 total energy-change (2. order) : 0.3888288E-01  (-0.1366757E-01)
 number of electron      26.0000008 magnetization 
 augmentation part        4.0092109 magnetization 

 Broyden mixing:
  rms(total) = 0.61411E-01    rms(broyden)= 0.61411E-01
  rms(prec ) = 0.93847E-01
  weight for this iteration     100.00

 eigenvalues of (default mixing * dielectric matrix)
  average eigenvalue GAMMA=   1.8600
  1.3532  2.3668

 Free energy of the ion-electron system (eV)
  ---------------------------------------------------
  alpha Z        PSCENC =        64.20128509
  Ewald energy   TEWEN  =     -1439.91766544
  -Hartree energ DENC   =      -753.75922405
  -exchange      EXHF   =         0.00000000
  -V(xc)+E(xc)   XCENC  =        -1.01522256
  PAW double counting   =      2372.09127340    -2276.92805730
  entropy T*S    EENTRO =        -0.00334574
  eigenvalues    EBANDS =      -226.21833188
  atomic energy  EATOM  =      2247.12322143
  Solvation  Ediel_sol  =         0.00000000
  ---------------------------------------------------
  free energy    TOTEN  =       -14.42606705 eV

  energy without entropy =      -14.42272131  energy(sigma->0) =      -14.42439418


--------------------------------------------------------------------------------------------------------




--------------------------------------- Iteration      1(   8)  ---------------------------------------


    POTLOK:  cpu time    0.0084: real time    0.0084
    SETDIJ:  cpu time    0.0028: real time    0.0028
     EDDAV:  cpu time    0.2493: real time    0.2508
       DOS:  cpu time    0.0009: real time    0.0009
    CHARGE:  cpu time    0.0132: real time    0.0133
    MIXING:  cpu time    0.0010: real time    0.0010
    --------------------------------------------
      LOOP:  cpu time    0.2756: real time    0.2773

 eigenvalue-minimisations  :   576
 total energy-change (2. order) :-0.1672062E-02  (-0.1248639E-02)
 number of electron      26.0000008 magnetization 
 augmentation part        4.0132557 magnetization 

 Broyden mixing:
  rms(total) = 0.13629E-01    rms(broyden)= 0.13628E-01
  rms(prec ) = 0.22346E-01
  weight for this iteration     100.00

 eigenvalues of (default mixing * dielectric matrix)
  average eigenvalue GAMMA=   1.8437
  1.1798  2.5641  1.7873

 Free energy of the ion-electron system (eV)
  ---------------------------------------------------
  alpha Z        PSCENC =        64.20128509
  Ewald energy   TEWEN  =     -1439.91766544
  -Hartree energ DENC   =      -754.39022833
  -exchange      EXHF   =         0.00000000
  -V(xc)+E(xc)   XCENC  =        -0.89061359
  PAW double counting   =      2437.86469386    -2342.90320129
  entropy T*S    EENTRO =        -0.00335374
  eigenvalues    EBANDS =      -225.51187710
  atomic energy  EATOM  =      2247.12322143
  Solvation  Ediel_sol  =         0.00000000
  ---------------------------------------------------
  free energy    TOTEN  =       -14.42773911 eV

  energy without entropy =      -14.42438537  energy(sigma->0) =      -14.42606224


--------------------------------------------------------------------------------------------------------




--------------------------------------- Iteration      1(   9)  ---------------------------------------


    POTLOK:  cpu time    0.0102: real time    0.0146
    SETDIJ:  cpu time    0.0034: real time    0.0034
     EDDAV:  cpu time    0.1435: real time    0.1441
       DOS:  cpu time    0.0006: real time    0.0006
    CHARGE:  cpu time    0.0097: real time    0.0098
    MIXING:  cpu time    0.0007: real time    0.0007
    --------------------------------------------
      LOOP:  cpu time    0.1681: real time    0.1731

 eigenvalue-minimisations  :   512
 total energy-change (2. order) :-0.1327053E-02  (-0.1732643E-03)
 number of electron      26.0000008 magnetization 
 augmentation part        4.0147381 magnetization 

 Broyden mixing:
  rms(total) = 0.70867E-02    rms(broyden)= 0.70867E-02
  rms(prec ) = 0.96618E-02
  weight for this iteration     100.00

 eigenvalues of (default mixing * dielectric matrix)
  average eigenvalue GAMMA=   1.6446
  2.5551  2.0345  1.2761  0.7127

 Free energy of the ion-electron system (eV)
  ---------------------------------------------------
  alpha Z        PSCENC =        64.20128509
  Ewald energy   TEWEN  =     -1439.91766544
  -Hartree energ DENC   =      -754.67487941
  -exchange      EXHF   =         0.00000000
  -V(xc)+E(xc)   XCENC  =        -0.85445483
  PAW double counting   =      2439.35687816    -2344.30437058
  entropy T*S    EENTRO =        -0.00308838
  eigenvalues    EBANDS =      -225.35599220
  atomic energy  EATOM  =      2247.12322143
  Solvation  Ediel_sol  =         0.00000000
  ---------------------------------------------------
  free energy    TOTEN  =       -14.42906617 eV

  energy without entropy =      -14.42597778  energy(sigma->0) =      -14.42752197


--------------------------------------------------------------------------------------------------------




--------------------------------------- Iteration      1(  10)  ---------------------------------------


    POTLOK:  cpu time    0.0081: real time    0.0082
    SETDIJ:  cpu time    0.0026: real time    0.0026
     EDDAV:  cpu time    0.1690: real time    0.1697
       DOS:  cpu time    0.0006: real time    0.0006
    CHARGE:  cpu time    0.0097: real time    0.0097
    MIXING:  cpu time    0.0007: real time    0.0007
    --------------------------------------------
      LOOP:  cpu time    0.1907: real time    0.1915

 eigenvalue-minimisations  :   576
 total energy-change (2. order) :-0.2561750E-03  (-0.1658249E-04)
 number of electron      26.0000008 magnetization 
 augmentation part        4.0148855 magnetization 

 Broyden mixing:
  rms(total) = 0.32410E-02    rms(broyden)= 0.32410E-02
  rms(prec ) = 0.49097E-02
  weight for this iteration     100.00

 eigenvalues of (default mixing * dielectric matrix)
  average eigenvalue GAMMA=   1.7912
  2.9070  2.3399  0.9853  1.3302  1.3937

 Free energy of the ion-electron system (eV)
  ---------------------------------------------------
  alpha Z        PSCENC =        64.20128509
  Ewald energy   TEWEN  =     -1439.91766544
  -Hartree energ DENC   =      -754.81287574
  -exchange      EXHF   =         0.00000000
  -V(xc)+E(xc)   XCENC  =        -0.84695292
  PAW double counting   =      2434.73071660    -2339.63865088
  entropy T*S    EENTRO =        -0.00304341
  eigenvalues    EBANDS =      -225.26535706
  atomic energy  EATOM  =      2247.12322143
  Solvation  Ediel_sol  =         0.00000000
  ---------------------------------------------------
  free energy    TOTEN  =       -14.42932234 eV

  energy without entropy =      -14.42627893  energy(sigma->0) =      -14.42780064


--------------------------------------------------------------------------------------------------------




--------------------------------------- Iteration      1(  11)  ---------------------------------------


    POTLOK:  cpu time    0.0086: real time    0.0087
    SETDIJ:  cpu time    0.0026: real time    0.0027
     EDDAV:  cpu time    0.1437: real time    0.1442
       DOS:  cpu time    0.0006: real time    0.0006
    CHARGE:  cpu time    0.0098: real time    0.0099
    MIXING:  cpu time    0.0007: real time    0.0007
    --------------------------------------------
      LOOP:  cpu time    0.1660: real time    0.1667

 eigenvalue-minimisations  :   512
 total energy-change (2. order) :-0.1315722E-03  (-0.1716611E-04)
 number of electron      26.0000008 magnetization 
 augmentation part        4.0151825 magnetization 

 Broyden mixing:
  rms(total) = 0.66692E-03    rms(broyden)= 0.66692E-03
  rms(prec ) = 0.10430E-02
  weight for this iteration     100.00

 eigenvalues of (default mixing * dielectric matrix)
  average eigenvalue GAMMA=   1.8657
  3.1983  2.4518  2.0116  0.9753  1.2787  1.2787

 Free energy of the ion-electron system (eV)
  ---------------------------------------------------
  alpha Z        PSCENC =        64.20128509
  Ewald energy   TEWEN  =     -1439.91766544
  -Hartree energ DENC   =      -754.94529353
  -exchange      EXHF   =         0.00000000
  -V(xc)+E(xc)   XCENC  =        -0.83853051
  PAW double counting   =      2432.58498967    -2337.47190882
  entropy T*S    EENTRO =        -0.00301639
  eigenvalues    EBANDS =      -225.16253540
  atomic energy  EATOM  =      2247.12322143
  Solvation  Ediel_sol  =         0.00000000
  ---------------------------------------------------
  free energy    TOTEN  =       -14.42945391 eV

  energy without entropy =      -14.42643752  energy(sigma->0) =      -14.42794572


--------------------------------------------------------------------------------------------------------




--------------------------------------- Iteration      1(  12)  ---------------------------------------


    POTLOK:  cpu time    0.0084: real time    0.0084
    SETDIJ:  cpu time    0.0027: real time    0.0027
     EDDAV:  cpu time    0.1562: real time    0.1569
       DOS:  cpu time    0.0006: real time    0.0006
    CHARGE:  cpu time    0.0097: real time    0.0097
    MIXING:  cpu time    0.0008: real time    0.0008
    --------------------------------------------
      LOOP:  cpu time    0.1782: real time    0.1790

 eigenvalue-minimisations  :   544
 total energy-change (2. order) :-0.6527734E-05  (-0.1256336E-05)
 number of electron      26.0000008 magnetization 
 augmentation part        4.0153658 magnetization 

 Broyden mixing:
  rms(total) = 0.17768E-03    rms(broyden)= 0.17767E-03
  rms(prec ) = 0.22810E-03
  weight for this iteration     100.00

 eigenvalues of (default mixing * dielectric matrix)
  average eigenvalue GAMMA=   1.8700
  3.3965  2.6303  2.3375  1.3423  1.3423  0.9739  1.0672

 Free energy of the ion-electron system (eV)
  ---------------------------------------------------
  alpha Z        PSCENC =        64.20128509
  Ewald energy   TEWEN  =     -1439.91766544
  -Hartree energ DENC   =      -754.95783836
  -exchange      EXHF   =         0.00000000
  -V(xc)+E(xc)   XCENC  =        -0.83832789
  PAW double counting   =      2432.40864337    -2337.29589163
  entropy T*S    EENTRO =        -0.00300816
  eigenvalues    EBANDS =      -225.14987883
  atomic energy  EATOM  =      2247.12322143
  Solvation  Ediel_sol  =         0.00000000
  ---------------------------------------------------
  free energy    TOTEN  =       -14.42946044 eV

  energy without entropy =      -14.42645228  energy(sigma->0) =      -14.42795636


--------------------------------------------------------------------------------------------------------




--------------------------------------- Iteration      1(  13)  ---------------------------------------


    POTLOK:  cpu time    0.0084: real time    0.0084
    SETDIJ:  cpu time    0.0026: real time    0.0026
     EDDAV:  cpu time    0.2041: real time    0.2049
       DOS:  cpu time    0.0006: real time    0.0006
    CHARGE:  cpu time    0.0098: real time    0.0098
    MIXING:  cpu time    0.0008: real time    0.0008
    --------------------------------------------
      LOOP:  cpu time    0.2262: real time    0.2272

 eigenvalue-minimisations  :   672
 total energy-change (2. order) :-0.4176436E-06  (-0.3316152E-07)
 number of electron      26.0000008 magnetization 
 augmentation part        4.0153822 magnetization 

 Broyden mixing:
  rms(total) = 0.88600E-04    rms(broyden)= 0.88599E-04
  rms(prec ) = 0.10385E-03
  weight for this iteration     100.00

 eigenvalues of (default mixing * dielectric matrix)
  average eigenvalue GAMMA=   1.8711
  3.4745  2.6838  2.4688  1.8418  1.2813  1.2813  0.9685  0.9685

 Free energy of the ion-electron system (eV)
  ---------------------------------------------------
  alpha Z        PSCENC =        64.20128509
  Ewald energy   TEWEN  =     -1439.91766544
  -Hartree energ DENC   =      -754.96002159
  -exchange      EXHF   =         0.00000000
  -V(xc)+E(xc)   XCENC  =        -0.83841585
  PAW double counting   =      2432.49161911    -2337.37973818
  entropy T*S    EENTRO =        -0.00300726
  eigenvalues    EBANDS =      -225.14673815
  atomic energy  EATOM  =      2247.12322143
  Solvation  Ediel_sol  =         0.00000000
  ---------------------------------------------------
  free energy    TOTEN  =       -14.42946086 eV

  energy without entropy =      -14.42645360  energy(sigma->0) =      -14.42795723


--------------------------------------------------------------------------------------------------------




--------------------------------------- Iteration      1(  14)  ---------------------------------------


    POTLOK:  cpu time    0.0084: real time    0.0085
    SETDIJ:  cpu time    0.0027: real time    0.0027
     EDDAV:  cpu time    0.1459: real time    0.1465
       DOS:  cpu time    0.0006: real time    0.0006
    CHARGE:  cpu time    0.0097: real time    0.0097
    MIXING:  cpu time    0.0008: real time    0.0008
    --------------------------------------------
      LOOP:  cpu time    0.1682: real time    0.1689

 eigenvalue-minimisations  :   512
 total energy-change (2. order) :-0.2335969E-06  (-0.5199573E-08)
 number of electron      26.0000008 magnetization 
 augmentation part        4.0153823 magnetization 

 Broyden mixing:
  rms(total) = 0.15583E-04    rms(broyden)= 0.15583E-04
  rms(prec ) = 0.21294E-04
  weight for this iteration     100.00

 eigenvalues of (default mixing * dielectric matrix)
  average eigenvalue GAMMA=   1.8221
  3.4976  2.7063  2.3796  1.7342  0.9602  1.0313  1.5455  1.2720  1.2720

 Free energy of the ion-electron system (eV)
  ---------------------------------------------------
  alpha Z        PSCENC =        64.20128509
  Ewald energy   TEWEN  =     -1439.91766544
  -Hartree energ DENC   =      -754.96176703
  -exchange      EXHF   =         0.00000000
  -V(xc)+E(xc)   XCENC  =        -0.83833022
  PAW double counting   =      2432.55985857    -2337.44811117
  entropy T*S    EENTRO =        -0.00300663
  eigenvalues    EBANDS =      -225.14494568
  atomic energy  EATOM  =      2247.12322143
  Solvation  Ediel_sol  =         0.00000000
  ---------------------------------------------------
  free energy    TOTEN  =       -14.42946109 eV

  energy without entropy =      -14.42645446  energy(sigma->0) =      -14.42795778


--------------------------------------------------------------------------------------------------------




--------------------------------------- Iteration      1(  15)  ---------------------------------------


    POTLOK:  cpu time    0.0085: real time    0.0085
    SETDIJ:  cpu time    0.0027: real time    0.0027
     EDDAV:  cpu time    0.1422: real time    0.1428
       DOS:  cpu time    0.0005: real time    0.0005
    --------------------------------------------
      LOOP:  cpu time    0.1539: real time    0.1546

 eigenvalue-minimisations  :   480
 total energy-change (2. order) : 0.6775736E-09  (-0.4302560E-09)
 number of electron      26.0000008 magnetization 
 augmentation part        4.0153823 magnetization 

 Free energy of the ion-electron system (eV)
  ---------------------------------------------------
  alpha Z        PSCENC =        64.20128509
  Ewald energy   TEWEN  =     -1439.91766544
  -Hartree energ DENC   =      -754.96152994
  -exchange      EXHF   =         0.00000000
  -V(xc)+E(xc)   XCENC  =        -0.83833156
  PAW double counting   =      2432.55966347    -2337.44783145
  entropy T*S    EENTRO =        -0.00300642
  eigenvalues    EBANDS =      -225.14526626
  atomic energy  EATOM  =      2247.12322143
  Solvation  Ediel_sol  =         0.00000000
  ---------------------------------------------------
  free energy    TOTEN  =       -14.42946109 eV

  energy without entropy =      -14.42645467  energy(sigma->0) =      -14.42795788


--------------------------------------------------------------------------------------------------------




 average (electrostatic) potential at core
  the test charge radii are     1.2767  1.0856  1.0621
  (the norm of the test charge is              1.0000)
       1 -14.6471       2 -14.6471       3-107.3448       4 -51.5272
 
 
 
 E-fermi :   3.2104     XC(G=0):  -8.7235     alpha+bet : -8.3023


 k-point     1 :       0.0000    0.0000    0.0000
  band No.  band energies     occupation 
      1     -19.2110      2.00000
      2     -19.2110      2.00000
      3     -19.2097      2.00000
      4     -19.2002      2.00000
      5     -19.1598      2.00000
      6      -9.1237      2.00000
      7      -7.3742      2.00000
      8      -3.5065      2.00000
      9       0.5070      2.00000
     10       0.5070      2.00000
     11       1.8827      2.00000
     12       2.9700      2.00000
     13       3.2170      0.85130
     14       3.2170      0.85129
     15       4.1631      0.00000
     16       4.4150      0.00000
     17       6.2070      0.00000
     18       6.2070      0.00000
     19       6.3708      0.00000
     20       8.9444      0.00000
     21      11.4780      0.00000
     22      11.4780      0.00000
     23      12.0820      0.00000
     24      12.2120      0.00000
     25      12.4948      0.00000
     26      13.2404      0.00000
     27      13.2708      0.00000
     28      13.2708      0.00000
     29      13.9605      0.00000
     30      15.0666      0.00000
     31      15.0666      0.00000
     32      15.5651      0.00000

 k-point     2 :       0.3333    0.0000    0.0000
  band No.  band energies     occupation 
      1     -19.2200      2.00000
      2     -19.2105      2.00000
      3     -19.2028      2.00000
      4     -19.1901      2.00000
      5     -19.1633      2.00000
      6      -8.5196      2.00000
      7      -7.4972      2.00000
      8      -3.2249      2.00000
      9      -1.3695      2.00000
     10      -0.3836      2.00000
     11       1.0303      2.00000
     12       1.1182      2.00000
     13       2.8362      2.00000
     14       4.2293      0.00000
     15       5.1753      0.00000
     16       6.7359      0.00000
     17       6.9483      0.00000
     18       7.5480      0.00000
     19       8.4796      0.00000
     20       9.0863      0.00000
     21       9.1562      0.00000
     22      10.1197      0.00000
     23      10.5295      0.00000
     24      11.5658      0.00000
     25      11.7738      0.00000
     26      11.9099      0.00000
     27      13.7671      0.00000
     28      14.7888      0.00000
     29      15.3327      0.00000
     30      15.4360      0.00000
     31      17.0477      0.00000
     32      17.2626      0.00000

 k-point     3 :       0.3333    0.3333    0.0000
  band No.  band energies     occupation 
      1     -19.2195      2.00000
      2     -19.2190      2.00000
      3     -19.1942      2.00000
      4     -19.1819      2.00000
      5     -19.1672      2.00000
      6      -7.9745      2.00000
      7      -7.3276      2.00000
      8      -3.4037      2.00000
      9      -2.4290      2.00000
     10      -0.0443      2.00000
     11       0.2529      2.00000
     12       1.0165      2.00000
     13       1.1375      2.00000
     14       4.2486      0.00000
     15       4.9357      0.00000
     16       5.8218      0.00000
     17       6.0671      0.00000
     18       8.7824      0.00000
     19       8.9225      0.00000
     20       9.8255      0.00000
     21      10.5101      0.00000
     22      10.8266      0.00000
     23      12.7418      0.00000
     24      13.2468      0.00000
     25      13.6883      0.00000
     26      14.2764      0.00000
     27      14.3441      0.00000
     28      14.8565      0.00000
     29      16.0170      0.00000
     30      16.2921      0.00000
     31      16.7869      0.00000
     32      16.9770      0.00000

 k-point     4 :       0.0000    0.0000    0.3333
  band No.  band energies     occupation 
      1     -19.2111      2.00000
      2     -19.2111      2.00000
      3     -19.2097      2.00000
      4     -19.2000      2.00000
      5     -19.1598      2.00000
      6      -8.8103      2.00000
      7      -7.9892      2.00000
      8      -2.4145      2.00000
      9      -0.2081      2.00000
     10       0.7906      2.00000
     11       0.7906      2.00000
     12       2.4088      2.00000
     13       2.4088      2.00000
     14       4.0268      0.00000
     15       4.7935      0.00000
     16       5.0942      0.00000
     17       5.8053      0.00000
     18       7.5824      0.00000
     19       7.5824      0.00000
     20       9.6430      0.00000
     21       9.9585      0.00000
     22       9.9585      0.00000
     23      10.3705      0.00000
     24      10.8149      0.00000
     25      12.3969      0.00000
     26      13.8140      0.00000
     27      13.8140      0.00000
     28      13.9999      0.00000
     29      14.2392      0.00000
     30      14.6888      0.00000
     31      16.1460      0.00000
     32      16.1460      0.00000

 k-point     5 :       0.3333    0.0000    0.3333
  band No.  band energies     occupation 
      1     -19.2201      2.00000
      2     -19.2105      2.00000
      3     -19.2028      2.00000
      4     -19.1901      2.00000
      5     -19.1633      2.00000
      6      -8.2930      2.00000
      7      -7.7767      2.00000
      8      -3.1090      2.00000
      9      -2.1998      2.00000
     10       0.5493      2.00000
     11       1.1686      2.00000
     12       2.1458      2.00000
     13       2.6193      2.00000
     14       3.2840      0.03718
     15       4.6635      0.00000
     16       6.7681      0.00000
     17       7.1267      0.00000
     18       7.1698      0.00000
     19       8.1662      0.00000
     20       8.6932      0.00000
     21       9.8492      0.00000
     22      10.2787      0.00000
     23      11.6451      0.00000
     24      11.6868      0.00000
     25      11.7518      0.00000
     26      12.7352      0.00000
     27      13.3938      0.00000
     28      13.7378      0.00000
     29      14.5270      0.00000
     30      15.0994      0.00000
     31      17.0158      0.00000
     32      17.2699      0.00000

 k-point     6 :       0.3333    0.3333    0.3333
  band No.  band energies     occupation 
      1     -19.2196      2.00000
      2     -19.2191      2.00000
      3     -19.1941      2.00000
      4     -19.1819      2.00000
      5     -19.1672      2.00000
      6      -7.8218      2.00000
      7      -7.4755      2.00000
      8      -3.2213      2.00000
      9      -2.7415      2.00000
     10      -0.4767      2.00000
     11       0.1985      2.00000
     12       1.1694      2.00000
     13       1.2923      2.00000
     14       4.7069      0.00000
     15       5.6531      0.00000
     16       6.1275      0.00000
     17       7.5949      0.00000
     18       7.9896      0.00000
     19       8.9053      0.00000
     20       9.1134      0.00000
     21       9.5907      0.00000
     22      10.3560      0.00000
     23      11.4124      0.00000
     24      12.1115      0.00000
     25      12.4491      0.00000
     26      13.9259      0.00000
     27      14.6688      0.00000
     28      15.2151      0.00000
     29      15.4092      0.00000
     30      16.1008      0.00000
     31      16.8426      0.00000
     32      17.4327      0.00000


--------------------------------------------------------------------------------------------------------


 soft charge-density along one line, spin component           1
         0         1         2         3         4         5         6         7         8         9
 total charge-density along one line
 
 pseudopotential strength for first ion, spin component:           1
  5.701   6.822  -0.000  -0.003  -0.000  -0.000  -0.007  -0.000
  6.822   8.155  -0.000  -0.004  -0.000  -0.000  -0.008  -0.000
 -0.000  -0.000   1.277  -0.000   0.000   2.133  -0.000   0.000
 -0.003  -0.004  -0.000   1.279  -0.000  -0.000   2.137  -0.000
 -0.000  -0.000   0.000  -0.000   1.279   0.000  -0.000   2.137
 -0.000  -0.000   2.133  -0.000   0.000   3.579  -0.000   0.000
 -0.007  -0.008  -0.000   2.137  -0.000  -0.000   3.587  -0.000
 -0.000  -0.000   0.000  -0.000   2.137   0.000  -0.000   3.586
  0.000   0.000  -0.000   0.000  -0.000  -0.000   0.000  -0.000
 -0.000  -0.000  -0.002  -0.000   0.000  -0.004  -0.000   0.000
  0.003   0.003   0.000  -0.000   0.000   0.000  -0.001   0.000
 -0.000  -0.000   0.000  -0.000   0.002   0.000  -0.000   0.003
  0.003   0.004   0.000   0.002  -0.000   0.000   0.004  -0.000
 total augmentation occupancy for first ion, spin component:           1
  4.097  -1.503   0.000   0.002   0.000   0.000  -0.006   0.000   0.000   0.000   0.001   0.000  -0.030
 -1.503   0.719   0.000   0.041  -0.000   0.000  -0.004   0.000   0.000   0.000  -0.002   0.000   0.017
  0.000   0.000   2.152   0.000   0.000  -0.460   0.000   0.000   0.000  -0.222   0.000   0.000   0.000
  0.002   0.041   0.000   1.941   0.000   0.000  -0.410   0.000   0.000   0.000   0.031  -0.000   0.211
  0.000  -0.000   0.000   0.000   1.950   0.000  -0.000  -0.380   0.000   0.000   0.000   0.203   0.000
  0.000   0.000  -0.460   0.000   0.000   0.106   0.000   0.000   0.000   0.048   0.000   0.000   0.000
 -0.006  -0.004   0.000  -0.410   0.000   0.000   0.095   0.000   0.000   0.000  -0.006  -0.000  -0.044
  0.000  -0.000   0.000   0.000  -0.380   0.000   0.000   0.085   0.000   0.000   0.000  -0.039  -0.000
  0.000   0.000   0.000   0.000   0.000   0.000   0.000   0.000   0.011   0.000   0.000   0.000   0.000
  0.000   0.000  -0.222   0.000   0.000   0.048   0.000   0.000   0.000   0.039  -0.000   0.000   0.000
  0.001  -0.002   0.000   0.031  -0.000   0.000  -0.006   0.000   0.000   0.000   0.010   0.000   0.005
 -0.000   0.000   0.000  -0.000   0.203   0.000   0.000  -0.039   0.000   0.000   0.000   0.036   0.000
 -0.030   0.017   0.000   0.211   0.000   0.000  -0.044  -0.000   0.000  -0.000   0.005   0.000   0.036


------------------------ aborting loop because EDIFF is reached ----------------------------------------


    CHARGE:  cpu time    0.0097: real time    0.0097
    FORLOC:  cpu time    0.0009: real time    0.0009
    FORNL :  cpu time    0.0132: real time    0.0133
    STRESS:  cpu time    0.1589: real time    0.1597
    FORCOR:  cpu time    0.0079: real time    0.0080
    FORHAR:  cpu time    0.0024: real time    0.0024
    MIXING:  cpu time    0.0007: real time    0.0007
    OFIELD:  cpu time    0.0001: real time    0.0001

  FORCE on cell =-STRESS in cart. coord.  units (eV):
  Direction    XX          YY          ZZ          XY          YZ          ZX
  --------------------------------------------------------------------------------------
  Alpha Z    64.20129    64.20129    64.20129
  Ewald    -439.74121  -439.74123  -560.43629     0.00000     0.00000    -0.00000
  Hartree   290.97195   290.97195   173.01776    -0.00000    -0.00000    -0.00000
  E(xc)    -113.18006  -113.18006  -113.02229    -0.00000     0.00000     0.00000
  Local    -321.52512  -321.52511   -80.87502    -0.00000     0.00000     0.00000
  n-local   152.67136   159.32240   154.96558     0.00796     0.21332    -1.08918
  augment   139.09274   139.09274   139.49852     0.00000     0.00000    -0.00000
  Kinetic   219.23437   231.24487   222.09005    -0.68582     1.16124    -1.07149
  Fock        0.00000     0.00000     0.00000     0.00000     0.00000     0.00000
  -------------------------------------------------------------------------------------
  Total       1.05608     1.05608    -0.56041     0.00000     0.00000    -0.00000
  in kB      14.88877    14.88877    -7.90081     0.00000     0.00000    -0.00000
  external pressure =        7.29 kB  Pullay stress =        0.00 kB


 VOLUME and BASIS-vectors are now :
 -----------------------------------------------------------------------------
  energy-cutoff  :      500.00
  volume of cell :      113.64
      direct lattice vectors                 reciprocal lattice vectors
     4.300140858  0.000000000  0.000000000     0.232550522  0.000000000  0.000000000
     0.000000000  4.300140858  0.000000000     0.000000000  0.232550522  0.000000000
     0.000000000  0.000000000  6.145861149     0.000000000  0.000000000  0.162711128

  length of vectors
     4.300140858  4.300140858  6.145861149     0.232550522  0.232550522  0.162711128


 FORCES acting on ions
    electron-ion (+dipol)            ewald-force                    non-local-force                 convergence-correction
 -----------------------------------------------------------------------------------------------
   0.488E-14 -.182E-13 0.477E+02   0.261E-14 -.178E-15 -.473E+02   -.867E-18 0.000E+00 -.377E+00   0.951E-14 -.136E-14 0.267E-05
   -.379E-14 0.991E-14 -.477E+02   -.168E-14 -.547E-14 0.473E+02   0.867E-18 0.000E+00 0.377E+00   0.874E-14 0.793E-16 -.267E-05
   -.293E-13 0.178E-13 0.718E-06   -.341E-14 0.631E-14 0.425E-05   -.139E-16 0.000E+00 0.000E+00   -.337E-13 -.722E-14 -.131E-07
   0.168E-13 0.356E-12 0.910E-07   0.139E-14 0.780E-16 0.515E-06   0.347E-17 0.000E+00 0.000E+00   -.482E-14 -.763E-15 0.371E-08
 -----------------------------------------------------------------------------------------------
   -.114E-13 0.366E-12 0.344E-06   -.109E-14 0.740E-15 -.355E-14   -.104E-16 0.000E+00 0.000E+00   -.202E-13 -.927E-14 -.887E-08
 
 
 POSITION                                       TOTAL-FORCE (eV/Angst)
 -----------------------------------------------------------------------------------
      2.15007      0.00000      4.46027         0.000000     -0.000000     -0.026878
      0.00000      2.15007      1.68559        -0.000000     -0.000000      0.026878
      0.00000      0.00000      0.00000        -0.000000     -0.000000      0.000000
      2.15007      2.15007      3.07293        -0.000000      0.000000      0.000000
 -----------------------------------------------------------------------------------
    total drift:                               -0.000000      0.000000      0.000000


--------------------------------------------------------------------------------------------------------



  FREE ENERGIE OF THE ION-ELECTRON SYSTEM (eV)
  ---------------------------------------------------
  free  energy   TOTEN  =       -14.42946109 eV

  energy  without entropy=      -14.42645467  energy(sigma->0) =      -14.42795788
 


--------------------------------------------------------------------------------------------------------


    POTLOK:  cpu time    0.0112: real time    0.0123


--------------------------------------------------------------------------------------------------------


 
 Found     7 degrees of freedom:
  ----------------------------------------------
 
     directions for atom     1:  z 
     directions for atom     3:  z 
     directions for atom     4:  z 
 Linear response reoptimize wavefunctions
 Linear response:
   Degrees of freedom DOF   =            7
 Linear response progress:
  Degree of freedom:   1/  7
  LATTYP: Found a simple tetragonal cell.
 ALAT       =     4.3001408577
 C/A-ratio  =     1.4292232167
  
  Lattice vectors:
  
 A1 = (   4.3001408577,   0.0000000000,   0.0000000000)
 A2 = (   0.0000000000,   4.3001408577,   0.0000000000)
 A3 = (   0.0000000000,   0.0000000000,   6.1458611488)


Analysis of symmetry for initial positions (statically):
=====================================================================
 Subroutine PRICEL returns:
 Original cell was already a primitive cell.
 

 Routine SETGRP: Setting up the symmetry group for a 
 simple tetragonal supercell.


 Subroutine GETGRP returns: Found  8 space group operations
 (whereof  8 operations were pure point group operations)
 out of a pool of 16 trial point group operations.


The static configuration has the point symmetry D_2d.


Analysis of symmetry for dynamics (positions and initial velocities):
=====================================================================
 Subroutine PRICEL returns:
 Original cell was already a primitive cell.
 

 Routine SETGRP: Setting up the symmetry group for a 
 simple tetragonal supercell.


 Subroutine GETGRP returns: Found  2 space group operations
 (whereof  2 operations were pure point group operations)
 out of a pool of 16 trial point group operations.


The dynamic configuration has the point symmetry C_1h.


 Subroutine INISYM returns: Found  2 space group operations
 (whereof  2 operations are pure point group operations),
 and found     1 'primitive' translations



----------------------------------------- Iteration    4(   1)  ---------------------------------------


   POT+DIJ:  cpu time    0.0535: real time    0.0554
    HAMIL1:  cpu time    0.0201: real time    0.0202
    LRDIAG:  cpu time    0.0147: real time    0.0148
    LRDIIS:  cpu time    0.0892: real time    0.0896
    LRDIAG:  cpu time    0.0138: real time    0.0139
    --------------------------------------------
      LOOP:  cpu time    0.1926: real time    0.1957

 Free energy of the ion-electron system (eV)
  ---------------------------------------------------
  -Hartree energ DENC   =        -0.00463823
  -V(xc)+E(xc)   XCENC  =         0.00008156
  PAW double counting   =         0.00000000        0.00000000
  entropy T*S    EENTRO =         0.00000000
  eigenvalues    EBANDS =        -0.00752293
  ---------------------------------------------------
  free energy    TOTEN  =        -0.01207960 eV

  energy without entropy =       -0.01207960


----------------------------------------- Iteration    4(   2)  ---------------------------------------


   POT+DIJ:  cpu time    0.0517: real time    0.0519
    HAMIL1:  cpu time    0.0200: real time    0.0201
    LRDIAG:  cpu time    0.0139: real time    0.0139
    LRDIIS:  cpu time    0.0781: real time    0.0784
    LRDIAG:  cpu time    0.0127: real time    0.0128
    MIXING:  cpu time    0.0004: real time    0.0004
    --------------------------------------------
      LOOP:  cpu time    0.1975: real time    0.1983

 Broyden mixing:
  rms(total) = 0.21546E+00    rms(broyden)= 0.21545E+00
  rms(prec ) = 0.30374E+00
  weight for this iteration     100.00

 Free energy of the ion-electron system (eV)
  ---------------------------------------------------
  -Hartree energ DENC   =        -0.00463823
  -V(xc)+E(xc)   XCENC  =         0.00008156
  PAW double counting   =         0.00000000        0.00000000
  entropy T*S    EENTRO =         0.00000000
  eigenvalues    EBANDS =        -0.00647235
  ---------------------------------------------------
  free energy    TOTEN  =        -0.01102901 eV

  energy without entropy =       -0.01102901


----------------------------------------- Iteration    4(   3)  ---------------------------------------


   POT+DIJ:  cpu time    0.0526: real time    0.0528
    HAMIL1:  cpu time    0.0201: real time    0.0202
    LRDIAG:  cpu time    0.0136: real time    0.0137
    LRDIIS:  cpu time    0.0869: real time    0.0873
    LRDIAG:  cpu time    0.0123: real time    0.0124
    MIXING:  cpu time    0.0004: real time    0.0004
    --------------------------------------------
      LOOP:  cpu time    0.2056: real time    0.2065

 Broyden mixing:
  rms(total) = 0.12167E+00    rms(broyden)= 0.12167E+00
  rms(prec ) = 0.17622E+00
  weight for this iteration     100.00

 eigenvalues of (default mixing * dielectric matrix)
  average eigenvalue GAMMA=   2.2029
  2.2029

 Free energy of the ion-electron system (eV)
  ---------------------------------------------------
  -Hartree energ DENC   =        -0.00463135
  -V(xc)+E(xc)   XCENC  =         0.00008073
  PAW double counting   =         0.00032258       -0.00032326
  entropy T*S    EENTRO =         0.00000000
  eigenvalues    EBANDS =        -0.00638150
  ---------------------------------------------------
  free energy    TOTEN  =        -0.01093281 eV

  energy without entropy =       -0.01093281


----------------------------------------- Iteration    4(   4)  ---------------------------------------


   POT+DIJ:  cpu time    0.0508: real time    0.0510
    HAMIL1:  cpu time    0.0201: real time    0.0202
    LRDIAG:  cpu time    0.0133: real time    0.0134
    LRDIIS:  cpu time    0.0852: real time    0.0855
    LRDIAG:  cpu time    0.0119: real time    0.0120
    MIXING:  cpu time    0.0005: real time    0.0005
    --------------------------------------------
      LOOP:  cpu time    0.2015: real time    0.2023

 Broyden mixing:
  rms(total) = 0.14206E-01    rms(broyden)= 0.14206E-01
  rms(prec ) = 0.23048E-01
  weight for this iteration     100.00

 eigenvalues of (default mixing * dielectric matrix)
  average eigenvalue GAMMA=   1.9041
  1.2712  2.5370

 Free energy of the ion-electron system (eV)
[...]
      2       0.1247      0.00000
      3       0.1263      0.00000
      4      -0.1265      0.00000
      5      -0.0001      0.00000
      6      -0.1385      0.00000
      7      -0.1311      0.00000
      8       0.8005      0.00000
      9       0.7716      0.00000
     10       0.2968      0.00000
     11      -1.7998      0.00000
     12       0.6205      0.00000
     13       0.1637      0.00000
     14      -0.8181      2.09862
     15      -0.8586      0.00000
     16      -1.0901      0.00000
     17       0.8839      0.00000
     18      -0.9264      0.00000
     19       1.1978      0.00000
     20       1.2341      0.00000
     21      -0.5510      0.00000
     22      -0.1174      0.00000
     23       0.4874      0.00000
     24      -0.1684      0.00000
     25      -0.3412      0.00000
     26      -0.3430      0.00000
     27      -0.4101      0.00000
     28       0.6262      0.00000
     29      -0.3309      0.00000
     30       0.4203      0.00000
     31       1.4102      0.00000
     32       0.2551      0.00000

 k-point   6 :       0.3333    0.3333    0.3333
  band No.  band energies     occupation 
      1      -0.1253      0.00000
      2       0.1252      0.00000
      3      -0.0000      0.00000
      4      -0.0000      0.00000
      5      -0.0000      0.00000
      6       0.0000      0.00000
      7      -0.0000      0.00000
      8       0.0000      0.00000
      9       0.0000      0.00000
     10       0.0000      0.00000
     11      -0.0000      0.00000
     12       0.0000      0.00000
     13      -0.0000      0.00000
     14       0.0000      0.00000
     15      -0.0000      0.00000
     16       0.0000      0.00000
     17       0.0000      0.00000
     18       0.0000      0.00000
     19       0.0000      0.00000
     20       0.0000      0.00000
     21       0.0000      0.00000
     22      -0.0000      0.00000
     23      -0.0000      0.00000
     24      -0.0000      0.00000
     25       0.0000      0.00000
     26       0.0000      0.00000
     27      -0.0000      0.00000
     28       0.0000      0.00000
     29       0.0000      0.00000
     30      -0.0000      0.00000
     31       0.0000      0.00000
     32       0.0000      0.00000

 k-point   7 :       0.0000    0.3333    0.0000
  band No.  band energies     occupation 
      1       0.1239      0.00000
      2      -0.1247      0.00000
      3      -0.1261      0.00000
      4       0.1262      0.00000
      5       0.0001      0.00000
      6       0.1052      0.00000
      7       0.1853      0.00000
      8      -0.8117      0.00000
      9      -1.4483      0.00000
     10       0.2315      0.00000
     11       1.5268      0.00000
     12       0.0643      0.00000
     13       0.2174      0.00000
     14       1.5715      0.00000
     15      -0.1621      0.00000
     16       0.4308      0.00000
     17      -1.2196      0.00000
     18       0.8548      0.00000
     19      -0.4691      0.00000
     20      -0.1716      0.00000
     21      -1.6498      0.00000
     22       0.4277      0.00000
     23       0.5562      0.00000
     24      -0.0107      0.00000
     25       0.4785      0.00000
     26      -0.2064      0.00000
     27       0.4322      0.00000
     28      -0.2059      0.00000
     29       0.0782      0.00000
     30      -0.0208      0.00000
     31      -1.0739      0.00000
     32      -0.5086      0.00000

 k-point   8 :       0.0000    0.3333    0.3333
  band No.  band energies     occupation 
      1       0.1239      0.00000
      2      -0.1247      0.00000
      3      -0.1263      0.00000
      4       0.1264      0.00000
      5       0.0001      0.00000
      6       0.1385      0.00000
      7       0.1311      0.00000
      8      -0.8005      0.00000
      9      -0.7716      0.00000
     10      -0.2968      0.00000
     11       1.7998      0.00000
     12      -0.6205      0.00000
     13      -0.1638      0.00000
     14       0.8181     -2.09877
     15       0.8586      0.00000
     16       1.0901      0.00000
     17      -0.8839      0.00000
     18       0.9264      0.00000
     19      -1.1978      0.00000
     20      -1.2341      0.00000
     21       0.5510      0.00000
     22       0.1174      0.00000
     23      -0.4874      0.00000
     24       0.1684      0.00000
     25       0.3412      0.00000
     26       0.3430      0.00000
     27       0.4101      0.00000
     28      -0.6262      0.00000
     29       0.3309      0.00000
     30      -0.4204      0.00000
     31      -1.4102      0.00000
     32      -0.2551      0.00000


------------------------ aborting loop because EDIFF is reached ----------------------------------------


    FORLOC:  cpu time    0.0008: real time    0.0008
    FORNL :  cpu time    0.0193: real time    0.0194
    STRESS:  cpu time    0.2119: real time    0.2127
    FORCOR:  cpu time    0.0082: real time    0.0083
    OFIELD:  cpu time    0.0001: real time    0.0001
    FORLOC:  cpu time    0.0024: real time    0.0024
    FORNL :  cpu time    0.0273: real time    0.0274
    STRESS:  cpu time    0.2671: real time    0.2680
    FORCOR:  cpu time    0.0081: real time    0.0081
    OFIELD:  cpu time    0.0001: real time    0.0001
    FORLOC:  cpu time    0.0013: real time    0.0013
    FORNL :  cpu time    0.0189: real time    0.0190
    STRESS:  cpu time    0.2236: real time    0.2245
    FORCOR:  cpu time    0.0081: real time    0.0082
    OFIELD:  cpu time    0.0001: real time    0.0001
    FORLOC:  cpu time    0.0012: real time    0.0012
    FORNL :  cpu time    0.0190: real time    0.0191
    STRESS:  cpu time    0.2225: real time    0.2234
    FORCOR:  cpu time    0.0081: real time    0.0081
    OFIELD:  cpu time    0.0001: real time    0.0001

 INTERNAL STRAIN TENSOR  FOR ION    4  DIRECTION 3   (eV/Angst):
 -----------------------------------------------------------------------------
    -8.54396  0.00000  0.00000
     0.00000  8.54219  0.00000
     0.00000  0.00000  0.00074


 POSITION                   FORCE-CONSTANT FOR ION    4 DIRECTION 3 (eV/Angst/Angst)
 -----------------------------------------------------------------------------------
      2.15007      0.00000      4.46027         0.000000      0.000000      1.373523
      0.00000      2.15007      1.68559         0.000000      0.000000      1.372991
      0.00000      0.00000      0.00000         0.000000      0.000000      3.369515
      2.15007      2.15007      3.07293         0.000000      0.000000     -6.116028
 -----------------------------------------------------------------------------------
    total drift:                                0.000000      0.000000     -0.000000




--------------------------------------------------------------------------------------------------------


  LATTYP: Found a simple tetragonal cell.
 ALAT       =     4.3001408577
 C/A-ratio  =     1.4292232167
  
  Lattice vectors:
  
 A1 = (   4.3001408577,   0.0000000000,   0.0000000000)
 A2 = (   0.0000000000,   4.3001408577,   0.0000000000)
 A3 = (   0.0000000000,   0.0000000000,   6.1458611488)


Analysis of symmetry for initial positions (statically):
=====================================================================
 Subroutine PRICEL returns:
 Original cell was already a primitive cell.
 

 Routine SETGRP: Setting up the symmetry group for a 
 simple tetragonal supercell.


 Subroutine GETGRP returns: Found  8 space group operations
 (whereof  8 operations were pure point group operations)
 out of a pool of 16 trial point group operations.


The static configuration has the point symmetry D_2d.


Analysis of symmetry for dynamics (positions and initial velocities):
=====================================================================
 Subroutine PRICEL returns:
 Original cell was already a primitive cell.
 

 Routine SETGRP: Setting up the symmetry group for a 
 simple tetragonal supercell.


 Subroutine GETGRP returns: Found  8 space group operations
 (whereof  8 operations were pure point group operations)
 out of a pool of 16 trial point group operations.


The dynamic configuration has the point symmetry D_2d.


 Subroutine INISYM returns: Found  8 space group operations
 (whereof  8 operations are pure point group operations),
 and found     1 'primitive' translations



--------------------------------------------------------------------------------------------------------



 INTERNAL STRAIN TENSOR FOR ION    1 for displacements in x,y,z  (eV/Angst):
          X           Y           Z          XY          YZ          ZX
  --------------------------------------------------------------------------------
  x     0.00000     0.00000     0.00000     0.00000     0.00000     7.44261
  y     0.00000     0.00000     0.00000     0.00000    -5.43750     0.00000
  z    10.35391    -9.64097    -0.78225     0.00000     0.00000     0.00000

 INTERNAL STRAIN TENSOR FOR ION    2 for displacements in x,y,z  (eV/Angst):
          X           Y           Z          XY          YZ          ZX
  --------------------------------------------------------------------------------
  x     0.00000     0.00000     0.00000     0.00000     0.00000     5.68757
  y     0.00000     0.00000     0.00000     0.00000    -7.21127     0.00000
  z     9.64097   -10.35391     0.78225     0.00000     0.00000     0.00000

 INTERNAL STRAIN TENSOR FOR ION    3 for displacements in x,y,z  (eV/Angst):
          X           Y           Z          XY          YZ          ZX
  --------------------------------------------------------------------------------
  x     0.00000     0.00000     0.00000     0.00000     0.00000    -8.64393
  y     0.00000     0.00000     0.00000     0.00000     7.21422     0.00000
  z   -11.43896    11.43896     0.00000     0.00000     0.00000     0.00000

 INTERNAL STRAIN TENSOR FOR ION    4 for displacements in x,y,z  (eV/Angst):
          X           Y           Z          XY          YZ          ZX
  --------------------------------------------------------------------------------
  x     0.00000     0.00000     0.00000     0.00000     0.00000    -5.19629
  y     0.00000     0.00000     0.00000     0.00000     4.62187     0.00000
  z    -8.54307     8.54307     0.00000     0.00000     0.00000     0.00000


--------------------------------------------------------------------------------------------------------


 
 SECOND DERIVATIVES (NOT SYMMETRIZED)
 ------------------------------------
               1X          1Y          1Z          2X          2Y          2Z          3X          3Y          3Z          4X          4Y          4Z 
  1X    -5.786255    0.000000    0.000000    0.021653    0.000000    0.000000    5.988843    0.000000    0.000000   -0.224242    0.000000    0.000000
  1Y     0.000000   -5.225754    0.000000    0.000000    0.024389    0.000000    0.000000   -0.170101    0.000000    0.000000    5.371466    0.000000
  1Z     0.000000    0.000000   -5.504457    0.000000    0.000000    3.426572    0.000000    0.000000    0.705815    0.000000    0.000000    1.372069
  2X     0.024389    0.000000    0.000000   -5.225754    0.000000    0.000000   -0.170101    0.000000    0.000000    5.371466    0.000000    0.000000
  2Y     0.000000    0.021653    0.000000    0.000000   -5.786255    0.000000    0.000000    5.988843    0.000000    0.000000   -0.224242    0.000000
  2Z     0.000000    0.000000    3.426572    0.000000    0.000000   -5.504457    0.000000    0.000000    0.705815    0.000000    0.000000    1.372069
  3X     5.999163    0.000000    0.000000   -0.141412    0.000000    0.000000   -6.913268    0.000000    0.000000    1.055516    0.000000    0.000000
  3Y     0.000000   -0.141412    0.000000    0.000000    5.999163    0.000000    0.000000   -6.913268    0.000000    0.000000    1.055516    0.000000
  3Z     0.000000    0.000000    0.699735    0.000000    0.000000    0.699735    0.000000    0.000000   -4.750188    0.000000    0.000000    3.350717
  4X    -0.223322    0.000000    0.000000    5.368997    0.000000    0.000000    1.047448    0.000000    0.000000   -6.193123    0.000000    0.000000
  4Y     0.000000    5.368997    0.000000    0.000000   -0.223322    0.000000    0.000000    1.047448    0.000000    0.000000   -6.193123    0.000000
  4Z     0.000000    0.000000    1.373257    0.000000    0.000000    1.373257    0.000000    0.000000    3.369515    0.000000    0.000000   -6.116028
 
 
 Eigenvectors and eigenvalues of the dynamical matrix
 ----------------------------------------------------
 
 
   1 f  =    6.138406 THz    38.568744 2PiTHz  204.755188 cm-1    25.386417 meV
             X         Y         Z           dx          dy          dz
      2.150070  0.000000  4.460273     0.103173   -0.096785    0.000000  
      0.000000  2.150070  1.685588    -0.671068    0.014880   -0.000000  
      0.000000  0.000000  0.000000    -0.098961   -0.014273    0.000000  
      2.150070  2.150070  3.072931     0.713339    0.102881   -0.000000  
 
   2 f  =    6.138406 THz    38.568744 2PiTHz  204.755188 cm-1    25.386417 meV
             X         Y         Z           dx          dy          dz
      2.150070  0.000000  4.460273    -0.014880   -0.671068   -0.000000  
      0.000000  2.150070  1.685588     0.096785    0.103173    0.000000  
      0.000000  0.000000  0.000000     0.014273   -0.098961   -0.000000  
      2.150070  2.150070  3.072931    -0.102881    0.713339   -0.000000  
 
   3 f  =    5.595172 THz    35.155503 2PiTHz  186.634844 cm-1    23.139780 meV
             X         Y         Z           dx          dy          dz
      2.150070  0.000000  4.460273    -0.000000   -0.000000    0.707107  
      0.000000  2.150070  1.685588     0.000000   -0.000000   -0.707107  
      0.000000  0.000000  0.000000     0.000000    0.000000    0.000000  
      2.150070  2.150070  3.072931    -0.000000    0.000000    0.000000  
 
   4 f  =    5.253913 THz    33.011306 2PiTHz  175.251652 cm-1    21.728443 meV
             X         Y         Z           dx          dy          dz
      2.150070  0.000000  4.460273    -0.841569   -0.010522   -0.000000  
      0.000000  2.150070  1.685588    -0.124144   -0.071327    0.000000  
      0.000000  0.000000  0.000000     0.513246    0.043500    0.000000  
      2.150070  2.150070  3.072931     0.076134    0.006453   -0.000000  
 
   5 f  =    5.253913 THz    33.011306 2PiTHz  175.251652 cm-1    21.728443 meV
             X         Y         Z           dx          dy          dz
      2.150070  0.000000  4.460273     0.071327   -0.124144   -0.000000  
      0.000000  2.150070  1.685588     0.010522   -0.841569    0.000000  
      0.000000  0.000000  0.000000    -0.043500    0.513246    0.000000  
      2.150070  2.150070  3.072931    -0.006453    0.076134   -0.000000  
 
   6 f  =    4.928878 THz    30.969055 2PiTHz  164.409672 cm-1    20.384209 meV
             X         Y         Z           dx          dy          dz
      2.150070  0.000000  4.460273     0.000000   -0.000000   -0.223402  
      0.000000  2.150070  1.685588     0.000000   -0.000000   -0.223402  
      0.000000  0.000000  0.000000    -0.000000    0.000000   -0.283220  
      2.150070  2.150070  3.072931    -0.000000    0.000000    0.905522  
 
   7 f  =    2.914783 THz    18.314119 2PiTHz   97.226680 cm-1    12.054576 meV
             X         Y         Z           dx          dy          dz
      2.150070  0.000000  4.460273    -0.000000   -0.000000   -0.534734  
      0.000000  2.150070  1.685588     0.000000    0.000000   -0.534734  
      0.000000  0.000000  0.000000    -0.000000    0.000000    0.651545  
      2.150070  2.150070  3.072931     0.000000   -0.000000   -0.060066  
 
   8 f  =    1.266642 THz     7.958546 2PiTHz   42.250624 cm-1     5.238412 meV
             X         Y         Z           dx          dy          dz
      2.150070  0.000000  4.460273    -0.318311   -0.197995   -0.000000  
      0.000000  2.150070  1.685588     0.561043    0.112334    0.000000  
      0.000000  0.000000  0.000000    -0.461846    0.162988    0.000000  
      2.150070  2.150070  3.072931     0.509763   -0.179898   -0.000000  
 
   9 f  =    1.266642 THz     7.958546 2PiTHz   42.250624 cm-1     5.238412 meV
             X         Y         Z           dx          dy          dz
      2.150070  0.000000  4.460273    -0.112334    0.561043   -0.000000  
      0.000000  2.150070  1.685588     0.197995   -0.318311    0.000000  
      0.000000  0.000000  0.000000    -0.162988   -0.461846    0.000000  
      2.150070  2.150070  3.072931     0.179898    0.509763    0.000000  
 
  10 f/i=    0.005389 THz     0.033861 2PiTHz    0.179764 cm-1     0.022288 meV
             X         Y         Z           dx          dy          dz
      2.150070  0.000000  4.460273    -0.000000   -0.000000   -0.405155  
      0.000000  2.150070  1.685588    -0.000000   -0.000000   -0.405155  
      0.000000  0.000000  0.000000    -0.000000   -0.000000   -0.703759  
      2.150070  2.150070  3.072931    -0.000000   -0.000000   -0.420027  
 
  11 f/i=    0.015962 THz     0.100289 2PiTHz    0.532420 cm-1     0.066012 meV
             X         Y         Z           dx          dy          dz
      2.150070  0.000000  4.460273    -0.380272    0.134957   -0.000000  
      0.000000  2.150070  1.685588    -0.390632    0.131378   -0.000000  
      0.000000  0.000000  0.000000    -0.658123    0.227371   -0.000000  
      2.150070  2.150070  3.072931    -0.403785    0.139501   -0.000000  
 
  12 f/i=    0.015962 THz     0.100289 2PiTHz    0.532420 cm-1     0.066012 meV
             X         Y         Z           dx          dy          dz
      2.150070  0.000000  4.460273    -0.131378   -0.390632    0.000000  
      0.000000  2.150070  1.685588    -0.134957   -0.380272    0.000000  
      0.000000  0.000000  0.000000    -0.227371   -0.658123    0.000000  
      2.150070  2.150070  3.072931    -0.139501   -0.403785    0.000000  
 


--------------------------------------------------------------------------------------------------------



 ELASTIC MODULI IONIC CONTR (kBar)
 Direction    XX          YY          ZZ          XY          YZ          ZX
 --------------------------------------------------------------------------------
 XX       -1430.2177   1429.4153      0.8804      0.0000      0.0000      0.0000
 YY        1429.4153  -1430.2177      0.8804      0.0000     -0.0000     -0.0000
 ZZ           0.8804      0.8804     -1.9319      0.0000     -0.0000     -0.0000
 XY           0.0000      0.0000      0.0000      0.0000      0.0000      0.0000
 YZ           0.0000     -0.0000     -0.0000      0.0000   -195.7446      0.0000
 ZX           0.0000     -0.0000     -0.0000      0.0000      0.0000   -245.7489
 --------------------------------------------------------------------------------



--------------------------------------------------------------------------------------------------------


     LOOP+:  cpu time   25.5204: real time   26.2182
    4ORBIT:  cpu time    0.0000: real time    0.0000

 total amount of memory used by VASP MPI-rank0    41488. kBytes
=======================================================================

   base      :      30000. kBytes
   nonl-proj :       7734. kBytes
   fftplans  :        626. kBytes
   grid      :       2781. kBytes
   one-center:         62. kBytes
   wavefun   :        285. kBytes
 
  
  
 General timing and accounting informations for this job:
 ========================================================
  
                  Total CPU time used (sec):       26.248
                            User time (sec):       25.906
                          System time (sec):        0.343
                         Elapsed time (sec):       27.166
  
                   Maximum memory used (kb):      128624.
                   Average memory used (kb):           0.
  
                          Minor page faults:        59432
                          Major page faults:            0
                 Voluntary context switches:         1337
