phonopy:
  version: 1.11.8
  configuration:
    dim: "1 1 1"
    force_constants: "READ"
    band: "0.5 0.0 0   0 0 0    0.0 0.5 0.5"
    band_lables: "M G R"
    atom_name: ""
    band_points: "31"

supercell_matrix:
- [   1,   0,   0 ]
- [   0,   1,   0 ]
- [   0,   0,   1 ]

primitive_cell:
  lattice:
  - [     4.300140857700000,     0.000000000000000,     0.000000000000000 ] # a
  - [     0.000000000000000,     4.300140857700000,     0.000000000000000 ] # b
  - [     0.000000000000000,     0.000000000000000,     6.145861148800000 ] # c
  points:
  - symbol: Ga # 1
    coordinates: [  0.500000000000000,  0.000000000000000,  0.725736017000000 ]
    mass: 69.723000
  - symbol: Ga # 2
    coordinates: [  0.000000000000000,  0.500000000000000,  0.274264003000000 ]
    mass: 69.723000
  - symbol: Bi # 3
    coordinates: [  0.000000000000000,  0.000000000000000,  0.000000000000000 ]
    mass: 208.980400
  - symbol: As # 4
    coordinates: [  0.500000000000000,  0.500000000000000,  0.500000000000000 ]
    mass: 74.921600
  reciprocal_lattice: # without 2pi
  - [     0.232550521736831,     0.000000000000000,     0.000000000000000 ] # a*
  - [     0.000000000000000,     0.232550521736831,     0.000000000000000 ] # b*
  - [     0.000000000000000,     0.000000000000000,     0.162711127991438 ] # c*

unit_cell:
  lattice:
  - [     4.300140857700000,     0.000000000000000,     0.000000000000000 ] # a
  - [     0.000000000000000,     4.300140857700000,     0.000000000000000 ] # b
  - [     0.000000000000000,     0.000000000000000,     6.145861148800000 ] # c
  points:
  - symbol: Ga # 1
    coordinates: [  0.500000000000000,  0.000000000000000,  0.725736017000000 ]
    mass: 69.723000
    reduced_to: 1
  - symbol: Ga # 2
    coordinates: [  0.000000000000000,  0.500000000000000,  0.274264003000000 ]
    mass: 69.723000
    reduced_to: 2
  - symbol: Bi # 3
    coordinates: [  0.000000000000000,  0.000000000000000,  0.000000000000000 ]
    mass: 208.980400
    reduced_to: 3
  - symbol: As # 4
    coordinates: [  0.500000000000000,  0.500000000000000,  0.500000000000000 ]
    mass: 74.921600
    reduced_to: 4

supercell:
  lattice:
  - [     4.300140857700000,     0.000000000000000,     0.000000000000000 ] # a
  - [     0.000000000000000,     4.300140857700000,     0.000000000000000 ] # b
  - [     0.000000000000000,     0.000000000000000,     6.145861148800000 ] # c
  points:
  - symbol: Ga # 1
    coordinates: [  0.500000000000000,  0.000000000000000,  0.725736017000000 ]
    mass: 69.723000
    reduced_to: 1
  - symbol: Ga # 2
    coordinates: [  0.000000000000000,  0.500000000000000,  0.274264003000000 ]
    mass: 69.723000
    reduced_to: 2
  - symbol: Bi # 3
    coordinates: [  0.000000000000000,  0.000000000000000,  0.000000000000000 ]
    mass: 208.980400
    reduced_to: 3
  - symbol: As # 4
    coordinates: [  0.500000000000000,  0.500000000000000,  0.500000000000000 ]
    mass: 74.921600
    reduced_to: 4
