<?xml version="1.0" encoding="ISO-8859-1"?>
<modeling>
 <generator>
  <i name="program" type="string">vasp </i>
  <i name="version" type="string">5.4.4.18Apr17-6-g9f103f2a35  </i>
  <i name="subversion" type="string">(build Dec 27 2023 19:01:38) complex            parallel </i>
  <i name="platform" type="string">LinuxIFC </i>
  <i name="date" type="string">2024 08 25 </i>
  <i name="time" type="string">14:42:09 </i>
 </generator>
 <incar>
  <i type="string" name="SYSTEM"> CsAs</i>
  <i type="int" name="ISTART">     0</i>
  <i type="string" name="PREC">accurate</i>
  <i type="int" name="ICHARG">     2</i>
  <i type="int" name="IBRION">     8</i>
  <i name="EDIFF">      0.00000010</i>
  <i name="EDIFFG">     -0.01000000</i>
  <i name="ENCUT">    500.00000000</i>
  <i type="int" name="ISMEAR">     0</i>
  <i name="SIGMA">      0.05000000</i>
  <i type="logical" name="LWAVE"> F  </i>
  <i type="logical" name="LCHARG"> F  </i>
  <v type="int" name="KPOINT_BSE">    -1     0     0     0</v>
  <i type="string" name="GGA"> PE</i>
 </incar>
 <structure name="primitive_cell" >
  <crystal>
   <varray name="basis" >
    <v>       4.30014086       0.00000000       0.00000000 </v>
    <v>       0.00000000       4.30014086       0.00000000 </v>
    <v>       0.00000000       0.00000000       6.14586115 </v>
   </varray>
   <i name="volume">    113.64441771 </i>
   <varray name="rec_basis" >
    <v>       0.23255052       0.00000000       0.00000000 </v>
    <v>       0.00000000       0.23255052       0.00000000 </v>
    <v>       0.00000000       0.00000000       0.16271113 </v>
   </varray>
  </crystal>
  <varray name="positions" >
   <v>      -0.50000000       0.00000000      -0.27426398 </v>
   <v>      -0.50000000      -0.50000000      -0.50000000 </v>
   <v>       0.00000000       0.00000000       0.00000000 </v>
   <v>       0.00000000      -0.50000000       0.27426400 </v>
  </varray>
 </structure>
 <varray name="primitive_index" >
  <v type="int" >        1 </v>
  <v type="int" >        4 </v>
  <v type="int" >        3 </v>
  <v type="int" >        2 </v>
 </varray>
 <kpoints>
  <generation param="Gamma">
   <v type="int" name="divisions">       3        3        3 </v>
   <v name="usershift">      0.00000000       0.00000000       0.00000000 </v>
   <v name="genvec1">      0.33333333       0.00000000       0.00000000 </v>
   <v name="genvec2">      0.00000000       0.33333333       0.00000000 </v>
   <v name="genvec3">      0.00000000       0.00000000       0.33333333 </v>
   <v name="shift">      0.00000000       0.00000000       0.00000000 </v>
  </generation>
  <varray name="kpointlist" >
   <v>       0.00000000       0.00000000       0.00000000 </v>
   <v>       0.33333333       0.00000000       0.00000000 </v>
   <v>       0.33333333       0.33333333       0.00000000 </v>
   <v>       0.00000000       0.00000000       0.33333333 </v>
   <v>       0.33333333       0.00000000       0.33333333 </v>
   <v>       0.33333333       0.33333333       0.33333333 </v>
  </varray>
  <varray name="weights" >
   <v>       0.03703704 </v>
   <v>       0.14814815 </v>
   <v>       0.14814815 </v>
   <v>       0.07407407 </v>
   <v>       0.29629630 </v>
   <v>       0.29629630 </v>
  </varray>
 </kpoints>
 <parameters>
  <separator name="general" >
   <i type="string" name="SYSTEM">CsAs</i>
   <i type="logical" name="LCOMPAT"> F  </i>
  </separator>
  <separator name="electronic" >
   <i type="string" name="PREC">accura</i>
   <i name="ENMAX">    500.00000000</i>
   <i name="ENAUG">    462.75800000</i>
   <i name="EDIFF">      0.00000010</i>
   <i type="int" name="IALGO">    38</i>
   <i type="int" name="IWAVPR">    11</i>
   <i type="int" name="NBANDS">    32</i>
   <i name="NELECT">     26.00000000</i>
   <i type="int" name="TURBO">     0</i>
   <i type="int" name="IRESTART">     0</i>
   <i type="int" name="NREBOOT">     0</i>
   <i type="int" name="NMIN">     0</i>
   <i name="EREF">      0.00000000</i>
   <separator name="electronic smearing" >
    <i type="int" name="ISMEAR">     0</i>
    <i name="SIGMA">      0.05000000</i>
    <i name="KSPACING">      0.50000000</i>
    <i type="logical" name="KGAMMA"> T  </i>
   </separator>
   <separator name="electronic projectors" >
    <i type="logical" name="LREAL"> F  </i>
    <v name="ROPT">      0.00000000      0.00000000      0.00000000</v>
    <i type="int" name="LMAXPAW">  -100</i>
    <i type="int" name="LMAXMIX">     2</i>
    <i type="logical" name="NLSPLINE"> F  </i>
   </separator>
   <separator name="electronic startup" >
    <i type="int" name="ISTART">     0</i>
    <i type="int" name="ICHARG">     2</i>
    <i type="int" name="INIWAV">     1</i>
   </separator>
   <separator name="electronic spin" >
    <i type="int" name="ISPIN">     1</i>
    <i type="logical" name="LNONCOLLINEAR"> F  </i>
    <v name="MAGMOM">      1.00000000      1.00000000      1.00000000      1.00000000</v>
    <i name="NUPDOWN">     -1.00000000</i>
    <i type="logical" name="LSORBIT"> F  </i>
    <v name="SAXIS">      0.00000000      0.00000000      1.00000000</v>
    <i type="logical" name="LSPIRAL"> F  </i>
    <v name="QSPIRAL">      0.00000000      0.00000000      0.00000000</v>
    <i type="logical" name="LZEROZ"> F  </i>
   </separator>
   <separator name="electronic exchange-correlation" >
    <i type="logical" name="LASPH"> F  </i>
    <i type="logical" name="LMETAGGA"> F  </i>
   </separator>
   <separator name="electronic convergence" >
    <i type="int" name="NELM">    60</i>
    <i type="int" name="NELMDL">    -5</i>
    <i type="int" name="NELMIN">     2</i>
    <i name="ENINI">    500.00000000</i>
    <separator name="electronic convergence detail" >
     <i type="logical" name="LDIAG"> T  </i>
     <i type="logical" name="LSUBROT"> F  </i>
     <i name="WEIMIN">      0.00100000</i>
     <i name="EBREAK">      0.00000000</i>
     <i name="DEPER">      0.30000000</i>
     <i type="int" name="NRMM">     4</i>
     <i name="TIME">      0.40000000</i>
    </separator>
   </separator>
   <separator name="electronic mixer" >
    <i name="AMIX">      0.40000000</i>
    <i name="BMIX">      1.00000000</i>
    <i name="AMIN">      0.10000000</i>
    <i name="AMIX_MAG">      1.60000000</i>
    <i name="BMIX_MAG">      1.00000000</i>
    <separator name="electronic mixer details" >
     <i type="int" name="IMIX">     4</i>
     <i type="logical" name="MIXFIRST"> F  </i>
     <i type="int" name="MAXMIX">   -45</i>
     <i name="WC">    100.00000000</i>
     <i type="int" name="INIMIX">     1</i>
     <i type="int" name="MIXPRE">     1</i>
     <i type="int" name="MREMOVE">     5</i>
    </separator>
   </separator>
   <separator name="electronic dipolcorrection" >
    <i type="logical" name="LDIPOL"> F  </i>
    <i type="logical" name="LMONO"> F  </i>
    <i type="int" name="IDIPOL">     0</i>
    <i name="EPSILON">      1.00000000</i>
    <v name="DIPOL">   -100.00000000   -100.00000000   -100.00000000</v>
    <i name="EFIELD">      0.00000000</i>
   </separator>
  </separator>
  <separator name="grids" >
   <i type="int" name="NGX">    32</i>
   <i type="int" name="NGY">    32</i>
   <i type="int" name="NGZ">    48</i>
   <i type="int" name="NGXF">    64</i>
   <i type="int" name="NGYF">    64</i>
   <i type="int" name="NGZF">    96</i>
   <i type="logical" name="ADDGRID"> F  </i>
  </separator>
  <separator name="ionic" >
   <i type="int" name="NSW">     1</i>
   <i type="int" name="IBRION">     8</i>
   <i type="int" name="MDALGO">     0</i>
   <i type="int" name="ISIF">     2</i>
   <i name="PSTRESS">      0.00000000</i>
   <i name="EDIFFG">     -0.01000000</i>
   <i type="int" name="NFREE">     0</i>
   <i name="POTIM">      0.50000000</i>
   <i name="SMASS">     -3.00000000</i>
   <i name="SCALEE">      1.00000000</i>
  </separator>
  <separator name="ionic md" >
   <i name="TEBEG">      0.00010000</i>
   <i name="TEEND">      0.00010000</i>
   <i type="int" name="NBLOCK">     1</i>
   <i type="int" name="KBLOCK">     1</i>
   <i type="int" name="NPACO">   256</i>
   <i name="APACO">     16.00000000</i>
  </separator>
  <separator name="symmetry" >
   <i type="int" name="ISYM">     2</i>
   <i name="SYMPREC">      0.00001000</i>
  </separator>
  <separator name="dos" >
   <i type="int" name="LORBIT">     0</i>
   <v name="RWIGS">     -1.00000000     -1.00000000     -1.00000000</v>
   <i type="int" name="NEDOS">   301</i>
   <i name="EMIN">     10.00000000</i>
   <i name="EMAX">    -10.00000000</i>
   <i name="EFERMI">      0.00000000</i>
  </separator>
  <separator name="writing" >
   <i type="int" name="NWRITE">     2</i>
   <i type="logical" name="LWAVE"> F  </i>
   <i type="logical" name="LDOWNSAMPLE"> F  </i>
   <i type="logical" name="LCHARG"> F  </i>
   <i type="logical" name="LPARD"> F  </i>
   <i type="logical" name="LVTOT"> F  </i>
   <i type="logical" name="LVHAR"> F  </i>
   <i type="logical" name="LELF"> F  </i>
   <i type="logical" name="LOPTICS"> F  </i>
   <v name="STM">      0.00000000      0.00000000      0.00000000      0.00000000      0.00000000      0.00000000      0.00000000</v>
  </separator>
  <separator name="performance" >
   <i type="int" name="NPAR">    32</i>
   <i type="int" name="NSIM">     4</i>
   <i type="int" name="NBLK">    -1</i>
   <i type="logical" name="LPLANE"> T  </i>
   <i type="logical" name="LSCALAPACK"> T  </i>
   <i type="logical" name="LSCAAWARE"> F  </i>
   <i type="logical" name="LSCALU"> F  </i>
   <i type="logical" name="LASYNC"> F  </i>
   <i type="logical" name="LORBITALREAL"> F  </i>
  </separator>
  <separator name="miscellaneous" >
   <i type="int" name="IDIOT">     3</i>
   <i type="int" name="ISPECIAL">     0</i>
   <i type="logical" name="LMUSIC"> F  </i>
   <v name="POMASS">     69.72300000    208.98000000     74.92200000</v>
   <v name="DARWINR">      0.00000000      0.00000000      0.00000000</v>
   <v name="DARWINV">      1.00000000      1.00000000      1.00000000</v>
   <i type="logical" name="LCORR"> T  </i>
  </separator>
  <i type="logical" name="GGA_COMPAT"> T  </i>
  <i type="logical" name="LBERRY"> F  </i>
  <i type="int" name="ICORELEVEL">     0</i>
  <i type="logical" name="LDAU"> F  </i>
  <i type="int" name="I_CONSTRAINED_M">     0</i>
  <separator name="electronic exchange-correlation" >
   <i type="string" name="GGA">PE</i>
   <i type="int" name="VOSKOWN">     0</i>
   <i type="logical" name="LHFCALC"> F  </i>
   <i type="string" name="PRECFOCK"></i>
   <i type="logical" name="LSYMGRAD"> F  </i>
   <i type="logical" name="LHFONE"> F  </i>
   <i type="logical" name="LRHFCALC"> F  </i>
   <i type="logical" name="LTHOMAS"> F  </i>
   <i type="logical" name="LMODELHF"> F  </i>
   <i name="ENCUT4O">     -1.00000000</i>
   <i type="int" name="EXXOEP">     0</i>
   <i type="int" name="FOURORBIT">     0</i>
   <i name="AEXX">      0.00000000</i>
   <i name="HFALPHA">      0.00000000</i>
   <i name="MCALPHA">      0.00000000</i>
   <i name="ALDAX">      1.00000000</i>
   <i name="AGGAX">      1.00000000</i>
   <i name="ALDAC">      1.00000000</i>
   <i name="AGGAC">      1.00000000</i>
   <i type="int" name="NKREDX">     1</i>
   <i type="int" name="NKREDY">     1</i>
   <i type="int" name="NKREDZ">     1</i>
   <i type="logical" name="SHIFTRED"> F  </i>
   <i type="logical" name="ODDONLY"> F  </i>
   <i type="logical" name="EVENONLY"> F  </i>
   <i type="int" name="LMAXFOCK">     0</i>
   <i type="int" name="NMAXFOCKAE">     0</i>
   <i type="logical" name="LFOCKAEDFT"> F  </i>
   <i name="HFSCREEN">      0.00000000</i>
   <i name="HFSCREENC">      0.00000000</i>
   <i type="int" name="NBANDSGWLOW">     0</i>
  </separator>
  <separator name="vdW DFT" >
   <i type="logical" name="LUSE_VDW"> F  </i>
   <i name="Zab_VDW">     -0.84910000</i>
   <i name="PARAM1">      0.12340000</i>
   <i name="PARAM2">      1.00000000</i>
   <i name="PARAM3">      0.00000000</i>
  </separator>
  <separator name="model GW" >
   <i type="int" name="MODEL_GW">     0</i>
   <i name="MODEL_EPS0">     17.04666266</i>
   <i name="MODEL_ALPHA">      1.00000000</i>
  </separator>
  <separator name="linear response parameters" >
   <i type="logical" name="LEPSILON"> F  </i>
   <i type="logical" name="LRPA"> F  </i>
   <i type="logical" name="LNABLA"> F  </i>
   <i type="logical" name="LVEL"> F  </i>
   <i type="int" name="KINTER">     0</i>
   <i name="CSHIFT">      0.10000000</i>
   <i name="OMEGAMAX">     -1.00000000</i>
   <i name="DEG_THRESHOLD">      0.00200000</i>
   <i name="RTIME">     -0.10000000</i>
   <i name="WPLASMAI">      0.00000000</i>
   <v name="DFIELD">      0.00000000      0.00000000      0.00000000</v>
   <v name="WPLASMA">      0.00000000      0.00000000      0.00000000      0.00000000      0.00000000      0.00000000      0.00000000      0.00000000      0.00000000</v>
  </separator>
  <separator name="orbital magnetization" >
   <i type="logical" name="NUCIND"> F  </i>
   <v name="MAGPOS">      0.00000000      0.00000000      0.00000000</v>
   <i type="logical" name="LNICSALL"> T  </i>
   <i type="logical" name="ORBITALMAG"> F  </i>
   <i type="logical" name="LMAGBLOCH"> F  </i>
   <i type="logical" name="LCHIMAG"> F  </i>
   <i type="logical" name="LGAUGE"> T  </i>
   <i type="int" name="MAGATOM">     0</i>
   <v name="MAGDIPOL">      0.00000000      0.00000000      0.00000000</v>
   <v name="AVECCONST">      0.00000000      0.00000000      0.00000000</v>
  </separator>
  <separator name="response functions" >
   <i type="logical" name="LADDER"> F  </i>
   <i type="logical" name="LRPAFORCE"> F  </i>
   <i type="logical" name="LFXC"> F  </i>
   <i type="logical" name="LHARTREE"> T  </i>
   <i type="int" name="IBSE">     0</i>
   <v type="int" name="KPOINT">    -1     0     0     0</v>
   <i type="logical" name="LTCTE"> F  </i>
   <i type="logical" name="LTETE"> F  </i>
   <i type="logical" name="LTRIPLET"> F  </i>
   <i type="logical" name="LFXCEPS"> F  </i>
   <i type="logical" name="LFXHEG"> F  </i>
   <i type="int" name="NATURALO">     2</i>
   <i type="logical" name="L2ORDER"> F  </i>
   <i type="logical" name="LMP2LT"> F  </i>
   <i type="logical" name="LUSEW"> F  </i>
   <i name="ENCUTGW">     -2.00000000</i>
   <i name="ENCUTGWSOFT">     -2.00000000</i>
   <i name="ENCUTLF">     -1.00000000</i>
   <i type="int" name="LMAXMP2">    -1</i>
   <i name="SCISSOR">      0.00000000</i>
   <i type="int" name="NOMEGA">     0</i>
   <i type="int" name="NOMEGAR">     0</i>
   <i type="int" name="NBANDSGW">    -1</i>
   <i type="int" name="NBANDSO">    -1</i>
   <i type="int" name="NBANDSV">    -1</i>
   <i type="int" name="NELM">     1</i>
   <i type="int" name="NELMHF">     1</i>
   <i type="int" name="DIM">     3</i>
   <i type="int" name="ANTIRES">     0</i>
   <i name="OMEGAMAX">    -30.00000000</i>
   <i name="OMEGAMIN">    -30.00000000</i>
   <i name="OMEGATL">   -200.00000000</i>
   <i type="int" name="OMEGAGRID">   140</i>
   <i name="CSHIFT">     -0.10000000</i>
   <i type="logical" name="SELFENERGY"> F  </i>
   <i type="logical" name="LSPECTRAL"> F  </i>
   <i type="logical" name="LSPECTRALGW"> F  </i>
   <i type="logical" name="LSINGLES"> F  </i>
   <i type="logical" name="LFERMIGW"> F  </i>
   <i type="logical" name="ODDONLYGW"> F  </i>
   <i type="logical" name="EVENONLYGW"> F  </i>
   <i type="int" name="NKREDLFX">     1</i>
   <i type="int" name="NKREDLFY">     1</i>
   <i type="int" name="NKREDLFZ">     1</i>
   <i type="int" name="MAXMEM">  2800</i>
   <i type="int" name="TELESCOPE">     0</i>
   <i type="int" name="TAUPAR">     1</i>
   <i type="int" name="OMEGAPAR">    -1</i>
   <i name="LAMBDA">      1.00000000</i>
  </separator>
  <separator name="External order field" >
   <i name="OFIELD_KAPPA">      0.00000000</i>
   <v name="OFIELD_K">      0.00000000      0.00000000      0.00000000</v>
   <i name="OFIELD_Q6_NEAR">      0.00000000</i>
   <i name="OFIELD_Q6_FAR">      0.00000000</i>
   <i name="OFIELD_A">      0.00000000</i>
  </separator>
 </parameters>
 <atominfo>
  <atoms>       4 </atoms>
  <types>       3 </types>
  <array name="atoms" >
   <dimension dim="1">ion</dimension>
   <field type="string">element</field>
   <field type="int">atomtype</field>
   <set>
    <rc><c>Ga</c><c>   1</c></rc>
    <rc><c>Ga</c><c>   1</c></rc>
    <rc><c>Bi</c><c>   2</c></rc>
    <rc><c>As</c><c>   3</c></rc>
   </set>
  </array>
  <array name="atomtypes" >
   <dimension dim="1">type</dimension>
   <field type="int">atomspertype</field>
   <field type="string">element</field>
   <field>mass</field>
   <field>valence</field>
   <field type="string">pseudopotential</field>
   <set>
    <rc><c>   2</c><c>Ga</c><c>     69.72300000</c><c>      3.00000000</c><c>  PAW_PBE Ga 08Apr2002                  </c></rc>
    <rc><c>   1</c><c>Bi</c><c>    208.98000000</c><c>     15.00000000</c><c>  PAW_PBE Bi_d 06Sep2000                </c></rc>
    <rc><c>   1</c><c>As</c><c>     74.92200000</c><c>      5.00000000</c><c>  PAW_PBE As 22Sep2009                  </c></rc>
   </set>
  </array>
 </atominfo>
 <structure name="initialpos" >
  <crystal>
   <varray name="basis" >
    <v>       4.30014086       0.00000000       0.00000000 </v>
    <v>       0.00000000       4.30014086       0.00000000 </v>
    <v>       0.00000000       0.00000000       6.14586115 </v>
   </varray>
   <i name="volume">    113.64441771 </i>
   <varray name="rec_basis" >
    <v>       0.23255052       0.00000000       0.00000000 </v>
    <v>       0.00000000       0.23255052       0.00000000 </v>
    <v>       0.00000000       0.00000000       0.16271113 </v>
   </varray>
  </crystal>
  <varray name="positions" >
   <v>       0.50000000       0.00000000       0.72573602 </v>
   <v>       0.00000000       0.50000000       0.27426400 </v>
   <v>       0.00000000       0.00000000       0.00000000 </v>
   <v>       0.50000000       0.50000000       0.50000000 </v>
  </varray>
 </structure>
 <calculation>
  <scstep>
   <time name="dav">    0.12    0.12</time>
   <time name="total">    0.14    0.14</time>
   <energy>
    <i name="alphaZ">     64.20128509 </i>
    <i name="ewald">  -1439.91766544 </i>
    <i name="hartreedc">   -749.41397116 </i>
    <i name="XCdc">     -1.78998093 </i>
    <i name="pawpsdc">   1946.54768465 </i>
    <i name="pawaedc">  -1848.13466329 </i>
    <i name="eentropy">     -0.00572404 </i>
    <i name="bandstr">   -163.46845616 </i>
    <i name="atom">   2247.12322143 </i>
    <i name="e_fr_energy">     55.14173015 </i>
    <i name="e_wo_entrp">     55.14745419 </i>
    <i name="e_0_energy">     55.14459217 </i>
   </energy>
  </scstep>
  <scstep>
   <time name="dav">    0.13    0.14</time>
   <time name="total">    0.13    0.14</time>
   <energy>
    <i name="e_fr_energy">    -13.35572984 </i>
    <i name="e_wo_entrp">    -13.35370960 </i>
    <i name="e_0_energy">    -13.35471972 </i>
   </energy>
  </scstep>
  <scstep>
   <time name="dav">    0.14    0.14</time>
   <time name="total">    0.14    0.14</time>
   <energy>
    <i name="e_fr_energy">    -14.62864777 </i>
    <i name="e_wo_entrp">    -14.62655778 </i>
    <i name="e_0_energy">    -14.62760278 </i>
   </energy>
  </scstep>
  <scstep>
   <time name="dav">    0.20    0.20</time>
   <time name="total">    0.20    0.20</time>
   <energy>
    <i name="e_fr_energy">    -14.63955898 </i>
    <i name="e_wo_entrp">    -14.63746899 </i>
    <i name="e_0_energy">    -14.63851399 </i>
   </energy>
  </scstep>
  <scstep>
   <time name="dav">    0.15    0.15</time>
   <time name="total">    0.16    0.17</time>
   <energy>
    <i name="e_fr_energy">    -14.63958171 </i>
    <i name="e_wo_entrp">    -14.63749172 </i>
    <i name="e_0_energy">    -14.63853671 </i>
   </energy>
  </scstep>
  <scstep>
   <time name="dav">    0.14    0.14</time>
   <time name="total">    0.16    0.16</time>
   <energy>
    <i name="e_fr_energy">    -14.46494993 </i>
    <i name="e_wo_entrp">    -14.46282007 </i>
    <i name="e_0_energy">    -14.46388500 </i>
   </energy>
  </scstep>
  <scstep>
   <time name="dav">    0.17    0.17</time>
   <time name="total">    0.19    0.20</time>
   <energy>
    <i name="e_fr_energy">    -14.42606705 </i>
    <i name="e_wo_entrp">    -14.42272131 </i>
    <i name="e_0_energy">    -14.42439418 </i>
   </energy>
  </scstep>
  <scstep>
   <time name="dav">    0.25    0.25</time>
   <time name="total">    0.28    0.28</time>
   <energy>
    <i name="e_fr_energy">    -14.42773911 </i>
    <i name="e_wo_entrp">    -14.42438537 </i>
    <i name="e_0_energy">    -14.42606224 </i>
   </energy>
  </scstep>
  <scstep>
   <time name="dav">    0.14    0.14</time>
   <time name="total">    0.17    0.17</time>
   <energy>
    <i name="e_fr_energy">    -14.42906617 </i>
    <i name="e_wo_entrp">    -14.42597778 </i>
    <i name="e_0_energy">    -14.42752197 </i>
   </energy>
  </scstep>
  <scstep>
   <time name="dav">    0.17    0.17</time>
   <time name="total">    0.19    0.19</time>
   <energy>
    <i name="e_fr_energy">    -14.42932234 </i>
    <i name="e_wo_entrp">    -14.42627893 </i>
    <i name="e_0_energy">    -14.42780064 </i>
   </energy>
  </scstep>
  <scstep>
   <time name="dav">    0.14    0.14</time>
   <time name="total">    0.17    0.17</time>
   <energy>
    <i name="e_fr_energy">    -14.42945391 </i>
    <i name="e_wo_entrp">    -14.42643752 </i>
    <i name="e_0_energy">    -14.42794572 </i>
   </energy>
  </scstep>
  <scstep>
   <time name="dav">    0.16    0.16</time>
   <time name="total">    0.18    0.18</time>
   <energy>
    <i name="e_fr_energy">    -14.42946044 </i>
    <i name="e_wo_entrp">    -14.42645228 </i>
    <i name="e_0_energy">    -14.42795636 </i>
   </energy>
  </scstep>
  <scstep>
   <time name="dav">    0.20    0.20</time>
   <time name="total">    0.23    0.23</time>
   <energy>
    <i name="e_fr_energy">    -14.42946086 </i>
    <i name="e_wo_entrp">    -14.42645360 </i>
    <i name="e_0_energy">    -14.42795723 </i>
   </energy>
  </scstep>
  <scstep>
   <time name="dav">    0.15    0.15</time>
   <time name="total">    0.17    0.17</time>
   <energy>
    <i name="e_fr_energy">    -14.42946109 </i>
    <i name="e_wo_entrp">    -14.42645446 </i>
    <i name="e_0_energy">    -14.42795778 </i>
   </energy>
  </scstep>
  <scstep>
   <time name="dav">    0.14    0.14</time>
   <time name="total">    0.15    0.15</time>
   <energy>
    <i name="alphaZ">     64.20128509 </i>
    <i name="ewald">  -1439.91766544 </i>
    <i name="hartreedc">   -754.96152994 </i>
    <i name="XCdc">     -0.83833156 </i>
    <i name="pawpsdc">   2432.55966347 </i>
    <i name="pawaedc">  -2337.44783145 </i>
    <i name="eentropy">     -0.00300642 </i>
    <i name="bandstr">   -225.14526626 </i>
    <i name="atom">   2247.12322143 </i>
    <i name="e_fr_energy">    -14.42946109 </i>
    <i name="e_wo_entrp">    -14.42645467 </i>
    <i name="e_0_energy">    -14.42795788 </i>
   </energy>
  </scstep>
  <structure>
   <crystal>
    <varray name="basis" >
     <v>       4.30014086       0.00000000       0.00000000 </v>
     <v>       0.00000000       4.30014086       0.00000000 </v>
     <v>       0.00000000       0.00000000       6.14586115 </v>
    </varray>
    <i name="volume">    113.64441771 </i>
    <varray name="rec_basis" >
     <v>       0.23255052       0.00000000       0.00000000 </v>
     <v>       0.00000000       0.23255052       0.00000000 </v>
     <v>       0.00000000       0.00000000       0.16271113 </v>
    </varray>
   </crystal>
   <varray name="positions" >
    <v>       0.50000000       0.00000000       0.72573602 </v>
    <v>       0.00000000       0.50000000       0.27426400 </v>
    <v>       0.00000000       0.00000000       0.00000000 </v>
    <v>       0.50000000       0.50000000       0.50000000 </v>
   </varray>
  </structure>
  <varray name="forces" >
   <v>       0.00000000      -0.00000000      -0.02687762 </v>
   <v>      -0.00000000      -0.00000000       0.02687762 </v>
   <v>      -0.00000000      -0.00000000       0.00000000 </v>
   <v>      -0.00000000       0.00000000       0.00000000 </v>
  </varray>
  <varray name="stress" >
   <v>      14.88876770       0.00000000      -0.00000000 </v>
   <v>       0.00000000      14.88876770       0.00000000 </v>
   <v>       0.00000000       0.00000000      -7.90080547 </v>
  </varray>
  <energy>
   <i name="e_fr_energy">    -14.42946109 </i>
   <i name="e_wo_entrp">    -14.42795788 </i>
   <i name="e_0_energy">     -0.00300642 </i>
  </energy>
  <kpoints>
   <generation param="Gamma">
    <v type="int" name="divisions">       3        3        3 </v>
    <v name="usershift">      0.00000000       0.00000000       0.00000000 </v>
    <v name="genvec1">      0.33333333       0.00000000       0.00000000 </v>
    <v name="genvec2">      0.00000000       0.33333333       0.00000000 </v>
    <v name="genvec3">      0.00000000       0.00000000       0.33333333 </v>
    <v name="shift">      0.00000000       0.00000000       0.00000000 </v>
   </generation>
   <varray name="kpointlist" >
    <v>       0.00000000       0.00000000       0.00000000 </v>
    <v>       0.33333333       0.00000000       0.00000000 </v>
    <v>       0.00000000       0.33333333       0.00000000 </v>
    <v>       0.33333333       0.33333333       0.00000000 </v>
    <v>       0.00000000       0.00000000       0.33333333 </v>
    <v>       0.33333333       0.00000000       0.33333333 </v>
    <v>      -0.33333333       0.00000000       0.33333333 </v>
    <v>       0.00000000       0.33333333       0.33333333 </v>
    <v>       0.33333333       0.33333333       0.33333333 </v>
    <v>      -0.33333333       0.33333333       0.33333333 </v>
   </varray>
   <varray name="weights" >
    <v>       0.03703704 </v>
    <v>       0.07407407 </v>
    <v>       0.07407407 </v>
    <v>       0.14814815 </v>
    <v>       0.07407407 </v>
    <v>       0.07407407 </v>
    <v>       0.07407407 </v>
    <v>       0.14814815 </v>
    <v>       0.14814815 </v>
    <v>       0.14814815 </v>
   </varray>
  </kpoints>
  <scstep>
   <time name="total">    0.19    0.20</time>
   <energy>
    <i name="e_fr_energy">    -30.19899157 </i>
    <i name="e_wo_entrp">    -30.19899157 </i>
    <i name="e_0_energy">    -30.19899157 </i>
   </energy>
  </scstep>
  <scstep>
   <time name="total">    0.20    0.20</time>
   <energy>
    <i name="e_fr_energy">    -27.57252661 </i>
    <i name="e_wo_entrp">    -27.57252661 </i>
    <i name="e_0_energy">    -27.57252661 </i>
   </energy>
  </scstep>
  <scstep>
   <time name="total">    0.21    0.21</time>
   <energy>
    <i name="e_fr_energy">    -27.33202057 </i>
    <i name="e_wo_entrp">    -27.33202068 </i>
    <i name="e_0_energy">    -27.33202062 </i>
   </energy>
  </scstep>
  <scstep>
   <time name="total">    0.20    0.20</time>
   <energy>
    <i name="e_fr_energy">    -27.28525591 </i>
    <i name="e_wo_entrp">    -27.28525612 </i>
    <i name="e_0_energy">    -27.28525602 </i>
   </energy>
  </scstep>
  <scstep>
   <time name="total">    0.20    0.21</time>
   <energy>
    <i name="e_fr_energy">    -27.28489266 </i>
    <i name="e_wo_entrp">    -27.28489284 </i>
    <i name="e_0_energy">    -27.28489275 </i>
   </energy>
  </scstep>
  <scstep>
   <time name="total">    0.20    0.20</time>
   <energy>
    <i name="e_fr_energy">    -27.28356401 </i>
    <i name="e_wo_entrp">    -27.28356418 </i>
    <i name="e_0_energy">    -27.28356410 </i>
   </energy>
  </scstep>
  <scstep>
   <time name="total">    0.20    0.20</time>
   <energy>
    <i name="e_fr_energy">    -27.28366955 </i>
    <i name="e_wo_entrp">    -27.28366974 </i>
    <i name="e_0_energy">    -27.28366965 </i>
   </energy>
  </scstep>
  <kpoints>
   <generation param="Gamma">
    <v type="int" name="divisions">       3        3        3 </v>
    <v name="usershift">      0.00000000       0.00000000       0.00000000 </v>
    <v name="genvec1">      0.33333333       0.00000000       0.00000000 </v>
    <v name="genvec2">      0.00000000       0.33333333       0.00000000 </v>
    <v name="genvec3">      0.00000000       0.00000000       0.33333333 </v>
    <v name="shift">      0.00000000       0.00000000       0.00000000 </v>
   </generation>
   <varray name="kpointlist" >
    <v>       0.00000000       0.00000000       0.00000000 </v>
    <v>       0.33333333       0.00000000       0.00000000 </v>
    <v>       0.00000000       0.33333333       0.00000000 </v>
    <v>       0.33333333       0.33333333       0.00000000 </v>
    <v>       0.00000000       0.00000000       0.33333333 </v>
    <v>       0.33333333       0.00000000       0.33333333 </v>
    <v>       0.00000000       0.33333333       0.33333333 </v>
    <v>       0.33333333       0.33333333       0.33333333 </v>
    <v>       0.00000000      -0.33333333       0.33333333 </v>
    <v>       0.33333333      -0.33333333       0.33333333 </v>
   </varray>
   <varray name="weights" >
    <v>       0.03703704 </v>
    <v>       0.07407407 </v>
    <v>       0.07407407 </v>
    <v>       0.14814815 </v>
    <v>       0.07407407 </v>
    <v>       0.14814815 </v>
    <v>       0.07407407 </v>
    <v>       0.14814815 </v>
    <v>       0.07407407 </v>
    <v>       0.14814815 </v>
   </varray>
  </kpoints>
  <scstep>
   <time name="total">    0.20    0.20</time>
   <energy>
    <i name="e_fr_energy">    -28.18214605 </i>
    <i name="e_wo_entrp">    -28.18214605 </i>
    <i name="e_0_energy">    -28.18214605 </i>
   </energy>
  </scstep>
  <scstep>
   <time name="total">    0.21    0.22</time>
   <energy>
    <i name="e_fr_energy">    -27.13259106 </i>
    <i name="e_wo_entrp">    -27.13259106 </i>
    <i name="e_0_energy">    -27.13259106 </i>
   </energy>
  </scstep>
  <scstep>
   <time name="total">    0.21    0.21</time>
   <energy>
    <i name="e_fr_energy">    -26.94247926 </i>
    <i name="e_wo_entrp">    -26.94247936 </i>
    <i name="e_0_energy">    -26.94247931 </i>
   </energy>
  </scstep>
  <scstep>
   <time name="total">    0.21    0.21</time>
   <energy>
    <i name="e_fr_energy">    -26.80032467 </i>
    <i name="e_wo_entrp">    -26.80032481 </i>
    <i name="e_0_energy">    -26.80032474 </i>
   </energy>
  </scstep>
  <scstep>
   <time name="total">    0.21    0.21</time>
   <energy>
    <i name="e_fr_energy">    -26.80013494 </i>
    <i name="e_wo_entrp">    -26.80013504 </i>
    <i name="e_0_energy">    -26.80013499 </i>
   </energy>
  </scstep>
  <kpoints>
   <generation param="Gamma">
    <v type="int" name="divisions">       3        3        3 </v>
    <v name="usershift">      0.00000000       0.00000000       0.00000000 </v>
    <v name="genvec1">      0.33333333       0.00000000       0.00000000 </v>
    <v name="genvec2">      0.00000000       0.33333333       0.00000000 </v>
    <v name="genvec3">      0.00000000       0.00000000       0.33333333 </v>
    <v name="shift">      0.00000000       0.00000000       0.00000000 </v>
   </generation>
   <varray name="kpointlist" >
    <v>       0.00000000       0.00000000       0.00000000 </v>
    <v>       0.33333333       0.00000000       0.00000000 </v>
    <v>       0.00000000       0.33333333       0.00000000 </v>
    <v>       0.33333333       0.33333333       0.00000000 </v>
    <v>       0.00000000       0.00000000       0.33333333 </v>
    <v>       0.33333333       0.00000000       0.33333333 </v>
    <v>       0.00000000       0.33333333       0.33333333 </v>
    <v>       0.33333333       0.33333333       0.33333333 </v>
   </varray>
   <varray name="weights" >
    <v>       0.03703704 </v>
    <v>       0.07407407 </v>
    <v>       0.07407407 </v>
    <v>       0.14814815 </v>
    <v>       0.07407407 </v>
    <v>       0.14814815 </v>
    <v>       0.14814815 </v>
    <v>       0.29629630 </v>
   </varray>
  </kpoints>
  <scstep>
   <time name="total">    0.16    0.16</time>
   <energy>
    <i name="e_fr_energy">    -34.16168835 </i>
    <i name="e_wo_entrp">    -34.19406310 </i>
    <i name="e_0_energy">    -34.17787572 </i>
   </energy>
  </scstep>
  <scstep>
   <time name="total">    0.17    0.17</time>
   <energy>
    <i name="e_fr_energy">    -30.66946404 </i>
    <i name="e_wo_entrp">    -30.70183880 </i>
    <i name="e_0_energy">    -30.68565142 </i>
   </energy>
  </scstep>
  <scstep>
   <time name="total">    0.18    0.18</time>
   <energy>
    <i name="e_fr_energy">    -30.71750580 </i>
    <i name="e_wo_entrp">    -30.75036421 </i>
    <i name="e_0_energy">    -30.73393501 </i>
   </energy>
  </scstep>
  <scstep>
   <time name="total">    0.18    0.18</time>
   <energy>
    <i name="e_fr_energy">    -30.79075679 </i>
    <i name="e_wo_entrp">    -30.82400176 </i>
    <i name="e_0_energy">    -30.80737927 </i>
   </energy>
  </scstep>
  <scstep>
   <time name="total">    0.18    0.18</time>
   <energy>
    <i name="e_fr_energy">    -30.75952564 </i>
    <i name="e_wo_entrp">    -30.79305572 </i>
    <i name="e_0_energy">    -30.77629068 </i>
   </energy>
  </scstep>
  <scstep>
   <time name="total">    0.18    0.18</time>
   <energy>
    <i name="e_fr_energy">    -30.74835193 </i>
    <i name="e_wo_entrp">    -30.78192995 </i>
    <i name="e_0_energy">    -30.76514094 </i>
   </energy>
  </scstep>
  <scstep>
   <time name="total">    0.18    0.18</time>
   <energy>
    <i name="e_fr_energy">    -30.74841905 </i>
    <i name="e_wo_entrp">    -30.78201862 </i>
    <i name="e_0_energy">    -30.76521884 </i>
   </energy>
  </scstep>
  <scstep>
   <time name="total">    0.18    0.18</time>
   <energy>
    <i name="e_fr_energy">    -30.75252773 </i>
    <i name="e_wo_entrp">    -30.78613726 </i>
    <i name="e_0_energy">    -30.76933250 </i>
   </energy>
  </scstep>
  <scstep>
   <time name="total">    0.18    0.18</time>
   <energy>
    <i name="e_fr_energy">    -30.75255265 </i>
    <i name="e_wo_entrp">    -30.78616511 </i>
    <i name="e_0_energy">    -30.76935888 </i>
   </energy>
  </scstep>
  <scstep>
   <time name="total">    0.18    0.18</time>
   <energy>
    <i name="e_fr_energy">    -30.75254244 </i>
    <i name="e_wo_entrp">    -30.78615728 </i>
    <i name="e_0_energy">    -30.76934986 </i>
   </energy>
  </scstep>
  <scstep>
   <time name="total">    0.18    0.18</time>
   <energy>
    <i name="e_fr_energy">    -30.75242207 </i>
    <i name="e_wo_entrp">    -30.78603759 </i>
    <i name="e_0_energy">    -30.76922983 </i>
   </energy>
  </scstep>
  <scstep>
   <time name="total">    0.18    0.18</time>
   <energy>
    <i name="e_fr_energy">    -30.75242376 </i>
    <i name="e_wo_entrp">    -30.78603934 </i>
    <i name="e_0_energy">    -30.76923155 </i>
   </energy>
  </scstep>
  <scstep>
   <time name="total">    0.18    0.18</time>
   <energy>
    <i name="e_fr_energy">    -30.75242119 </i>
    <i name="e_wo_entrp">    -30.78603679 </i>
    <i name="e_0_energy">    -30.76922899 </i>
   </energy>
  </scstep>
  <scstep>
   <time name="total">    0.17    0.18</time>
   <energy>
    <i name="e_fr_energy">    -30.75241879 </i>
    <i name="e_wo_entrp">    -30.78603442 </i>
    <i name="e_0_energy">    -30.76922661 </i>
   </energy>
  </scstep>
  <scstep>
   <time name="total">    0.17    0.17</time>
   <energy>
    <i name="e_fr_energy">    -30.75241786 </i>
    <i name="e_wo_entrp">    -30.78603350 </i>
    <i name="e_0_energy">    -30.76922568 </i>
   </energy>
  </scstep>
  <scstep>
   <time name="total">    0.17    0.17</time>
   <energy>
    <i name="e_fr_energy">    -30.75241429 </i>
    <i name="e_wo_entrp">    -30.78602993 </i>
    <i name="e_0_energy">    -30.76922211 </i>
   </energy>
  </scstep>
  <kpoints>
   <generation param="Gamma">
    <v type="int" name="divisions">       3        3        3 </v>
    <v name="usershift">      0.00000000       0.00000000       0.00000000 </v>
    <v name="genvec1">      0.33333333       0.00000000       0.00000000 </v>
    <v name="genvec2">      0.00000000       0.33333333       0.00000000 </v>
    <v name="genvec3">      0.00000000       0.00000000       0.33333333 </v>
    <v name="shift">      0.00000000       0.00000000       0.00000000 </v>
   </generation>
   <varray name="kpointlist" >
    <v>       0.00000000       0.00000000       0.00000000 </v>
    <v>       0.33333333       0.00000000       0.00000000 </v>
    <v>       0.00000000       0.33333333       0.00000000 </v>
    <v>       0.33333333       0.33333333       0.00000000 </v>
    <v>       0.00000000       0.00000000       0.33333333 </v>
    <v>       0.33333333       0.00000000       0.33333333 </v>
    <v>      -0.33333333       0.00000000       0.33333333 </v>
    <v>       0.00000000       0.33333333       0.33333333 </v>
    <v>       0.33333333       0.33333333       0.33333333 </v>
    <v>      -0.33333333       0.33333333       0.33333333 </v>
   </varray>
   <varray name="weights" >
    <v>       0.03703704 </v>
    <v>       0.07407407 </v>
    <v>       0.07407407 </v>
    <v>       0.14814815 </v>
    <v>       0.07407407 </v>
    <v>       0.07407407 </v>
    <v>       0.07407407 </v>
    <v>       0.14814815 </v>
    <v>       0.14814815 </v>
    <v>       0.14814815 </v>
   </varray>
  </kpoints>
  <scstep>
   <time name="total">    0.17    0.17</time>
   <energy>
    <i name="e_fr_energy">   -823.65570995 </i>
    <i name="e_wo_entrp">   -823.65570995 </i>
    <i name="e_0_energy">   -823.65570995 </i>
   </energy>
  </scstep>
  <scstep>
   <time name="total">    0.19    0.19</time>
   <energy>
    <i name="e_fr_energy">   -844.09405155 </i>
    <i name="e_wo_entrp">   -844.09405155 </i>
    <i name="e_0_energy">   -844.09405155 </i>
   </energy>
  </scstep>
  <scstep>
   <time name="total">    0.20    0.21</time>
   <energy>
    <i name="e_fr_energy">   -844.06838961 </i>
    <i name="e_wo_entrp">   -844.06838940 </i>
    <i name="e_0_energy">   -844.06838951 </i>
   </energy>
  </scstep>
  <scstep>
   <time name="total">    0.21    0.21</time>
   <energy>
    <i name="e_fr_energy">   -844.07030599 </i>
    <i name="e_wo_entrp">   -844.07030574 </i>
    <i name="e_0_energy">   -844.07030586 </i>
   </energy>
  </scstep>
  <scstep>
   <time name="total">    0.21    0.21</time>
   <energy>
    <i name="e_fr_energy">   -844.08216339 </i>
    <i name="e_wo_entrp">   -844.08216309 </i>
    <i name="e_0_energy">   -844.08216324 </i>
   </energy>
  </scstep>
  <scstep>
   <time name="total">    0.20    0.21</time>
   <energy>
    <i name="e_fr_energy">   -844.06412574 </i>
    <i name="e_wo_entrp">   -844.06412552 </i>
    <i name="e_0_energy">   -844.06412563 </i>
   </energy>
  </scstep>
  <scstep>
   <time name="total">    0.20    0.20</time>
   <energy>
    <i name="e_fr_energy">   -844.03982142 </i>
    <i name="e_wo_entrp">   -844.03982109 </i>
    <i name="e_0_energy">   -844.03982126 </i>
   </energy>
  </scstep>
  <scstep>
   <time name="total">    0.20    0.20</time>
   <energy>
    <i name="e_fr_energy">   -844.02997125 </i>
    <i name="e_wo_entrp">   -844.02997096 </i>
    <i name="e_0_energy">   -844.02997111 </i>
   </energy>
  </scstep>
  <scstep>
   <time name="total">    0.19    0.19</time>
   <energy>
    <i name="e_fr_energy">   -844.03091025 </i>
    <i name="e_wo_entrp">   -844.03090997 </i>
    <i name="e_0_energy">   -844.03091011 </i>
   </energy>
  </scstep>
  <scstep>
   <time name="total">    0.19    0.19</time>
   <energy>
    <i name="e_fr_energy">   -844.03083879 </i>
    <i name="e_wo_entrp">   -844.03083850 </i>
    <i name="e_0_energy">   -844.03083864 </i>
   </energy>
  </scstep>
  <kpoints>
   <generation param="Gamma">
    <v type="int" name="divisions">       3        3        3 </v>
    <v name="usershift">      0.00000000       0.00000000       0.00000000 </v>
    <v name="genvec1">      0.33333333       0.00000000       0.00000000 </v>
    <v name="genvec2">      0.00000000       0.33333333       0.00000000 </v>
    <v name="genvec3">      0.00000000       0.00000000       0.33333333 </v>
    <v name="shift">      0.00000000       0.00000000       0.00000000 </v>
   </generation>
   <varray name="kpointlist" >
    <v>       0.00000000       0.00000000       0.00000000 </v>
    <v>       0.33333333       0.00000000       0.00000000 </v>
    <v>       0.00000000       0.33333333       0.00000000 </v>
    <v>       0.33333333       0.33333333       0.00000000 </v>
    <v>       0.00000000       0.00000000       0.33333333 </v>
    <v>       0.33333333       0.00000000       0.33333333 </v>
    <v>       0.00000000       0.33333333       0.33333333 </v>
    <v>       0.33333333       0.33333333       0.33333333 </v>
   </varray>
   <varray name="weights" >
    <v>       0.03703704 </v>
    <v>       0.07407407 </v>
    <v>       0.07407407 </v>
    <v>       0.14814815 </v>
    <v>       0.07407407 </v>
    <v>       0.14814815 </v>
    <v>       0.14814815 </v>
    <v>       0.29629630 </v>
   </varray>
  </kpoints>
  <scstep>
   <time name="total">    0.14    0.14</time>
   <energy>
    <i name="e_fr_energy">   -859.14897658 </i>
    <i name="e_wo_entrp">   -859.14897586 </i>
    <i name="e_0_energy">   -859.14897622 </i>
   </energy>
  </scstep>
  <scstep>
   <time name="total">    0.16    0.16</time>
   <energy>
    <i name="e_fr_energy">   -878.87192718 </i>
    <i name="e_wo_entrp">   -878.87192820 </i>
    <i name="e_0_energy">   -878.87192769 </i>
   </energy>
  </scstep>
  <scstep>
   <time name="total">    0.16    0.16</time>
   <energy>
    <i name="e_fr_energy">   -879.30291580 </i>
    <i name="e_wo_entrp">   -879.30291597 </i>
    <i name="e_0_energy">   -879.30291588 </i>
   </energy>
  </scstep>
  <scstep>
   <time name="total">    0.17    0.17</time>
   <energy>
    <i name="e_fr_energy">   -879.53434035 </i>
    <i name="e_wo_entrp">   -879.53434022 </i>
    <i name="e_0_energy">   -879.53434028 </i>
   </energy>
  </scstep>
  <scstep>
   <time name="total">    0.16    0.16</time>
   <energy>
    <i name="e_fr_energy">   -879.52544779 </i>
    <i name="e_wo_entrp">   -879.52544759 </i>
    <i name="e_0_energy">   -879.52544769 </i>
   </energy>
  </scstep>
  <scstep>
   <time name="total">    0.17    0.17</time>
   <energy>
    <i name="e_fr_energy">   -879.47464152 </i>
    <i name="e_wo_entrp">   -879.47464134 </i>
    <i name="e_0_energy">   -879.47464143 </i>
   </energy>
  </scstep>
  <scstep>
   <time name="total">    0.17    0.17</time>
   <energy>
    <i name="e_fr_energy">   -879.46474000 </i>
    <i name="e_wo_entrp">   -879.46473983 </i>
    <i name="e_0_energy">   -879.46473992 </i>
   </energy>
  </scstep>
  <scstep>
   <time name="total">    0.17    0.17</time>
   <energy>
    <i name="e_fr_energy">   -879.44338686 </i>
    <i name="e_wo_entrp">   -879.44338668 </i>
    <i name="e_0_energy">   -879.44338677 </i>
   </energy>
  </scstep>
  <scstep>
   <time name="total">    0.17    0.17</time>
   <energy>
    <i name="e_fr_energy">   -879.44404114 </i>
    <i name="e_wo_entrp">   -879.44404096 </i>
    <i name="e_0_energy">   -879.44404105 </i>
   </energy>
  </scstep>
  <scstep>
   <time name="total">    0.17    0.17</time>
   <energy>
    <i name="e_fr_energy">   -879.44359088 </i>
    <i name="e_wo_entrp">   -879.44359072 </i>
    <i name="e_0_energy">   -879.44359080 </i>
   </energy>
  </scstep>
  <scstep>
   <time name="total">    0.17    0.17</time>
   <energy>
    <i name="e_fr_energy">   -879.44355351 </i>
    <i name="e_wo_entrp">   -879.44355335 </i>
    <i name="e_0_energy">   -879.44355343 </i>
   </energy>
  </scstep>
  <kpoints>
   <generation param="Gamma">
    <v type="int" name="divisions">       3        3        3 </v>
    <v name="usershift">      0.00000000       0.00000000       0.00000000 </v>
    <v name="genvec1">      0.33333333       0.00000000       0.00000000 </v>
    <v name="genvec2">      0.00000000       0.33333333       0.00000000 </v>
    <v name="genvec3">      0.00000000       0.00000000       0.33333333 </v>
    <v name="shift">      0.00000000       0.00000000       0.00000000 </v>
   </generation>
   <varray name="kpointlist" >
    <v>       0.00000000       0.00000000       0.00000000 </v>
    <v>       0.33333333       0.00000000       0.00000000 </v>
    <v>       0.00000000       0.33333333       0.00000000 </v>
    <v>       0.33333333       0.33333333       0.00000000 </v>
    <v>       0.00000000       0.00000000       0.33333333 </v>
    <v>       0.33333333       0.00000000       0.33333333 </v>
    <v>      -0.33333333       0.00000000       0.33333333 </v>
    <v>       0.00000000       0.33333333       0.33333333 </v>
    <v>       0.33333333       0.33333333       0.33333333 </v>
    <v>      -0.33333333       0.33333333       0.33333333 </v>
   </varray>
   <varray name="weights" >
    <v>       0.03703704 </v>
    <v>       0.07407407 </v>
    <v>       0.07407407 </v>
    <v>       0.14814815 </v>
    <v>       0.07407407 </v>
    <v>       0.07407407 </v>
    <v>       0.07407407 </v>
    <v>       0.14814815 </v>
    <v>       0.14814815 </v>
    <v>       0.14814815 </v>
   </varray>
  </kpoints>
  <scstep>
   <time name="total">    0.19    0.19</time>
   <energy>
    <i name="e_fr_energy">   -115.43627541 </i>
    <i name="e_wo_entrp">   -115.43627541 </i>
    <i name="e_0_energy">   -115.43627541 </i>
   </energy>
  </scstep>
  <scstep>
   <time name="total">    0.19    0.19</time>
   <energy>
    <i name="e_fr_energy">   -114.91979874 </i>
    <i name="e_wo_entrp">   -114.91979874 </i>
    <i name="e_0_energy">   -114.91979874 </i>
   </energy>
  </scstep>
  <scstep>
   <time name="total">    0.19    0.20</time>
   <energy>
    <i name="e_fr_energy">   -115.14066591 </i>
    <i name="e_wo_entrp">   -115.14066569 </i>
    <i name="e_0_energy">   -115.14066580 </i>
   </energy>
  </scstep>
  <scstep>
   <time name="total">    0.20    0.20</time>
   <energy>
    <i name="e_fr_energy">   -115.72292141 </i>
    <i name="e_wo_entrp">   -115.72292107 </i>
    <i name="e_0_energy">   -115.72292124 </i>
   </energy>
  </scstep>
  <scstep>
   <time name="total">    0.20    0.20</time>
   <energy>
    <i name="e_fr_energy">   -115.70585601 </i>
    <i name="e_wo_entrp">   -115.70585575 </i>
    <i name="e_0_energy">   -115.70585588 </i>
   </energy>
  </scstep>
  <scstep>
   <time name="total">    0.20    0.20</time>
   <energy>
    <i name="e_fr_energy">   -115.70051463 </i>
    <i name="e_wo_entrp">   -115.70051436 </i>
    <i name="e_0_energy">   -115.70051449 </i>
   </energy>
  </scstep>
  <scstep>
   <time name="total">    0.20    0.20</time>
   <energy>
    <i name="e_fr_energy">   -115.70444617 </i>
    <i name="e_wo_entrp">   -115.70444589 </i>
    <i name="e_0_energy">   -115.70444603 </i>
   </energy>
  </scstep>
  <scstep>
   <time name="total">    0.20    0.20</time>
   <energy>
    <i name="e_fr_energy">   -115.70494833 </i>
    <i name="e_wo_entrp">   -115.70494806 </i>
    <i name="e_0_energy">   -115.70494820 </i>
   </energy>
  </scstep>
  <scstep>
   <time name="total">    0.19    0.20</time>
   <energy>
    <i name="e_fr_energy">   -115.70476283 </i>
    <i name="e_wo_entrp">   -115.70476256 </i>
    <i name="e_0_energy">   -115.70476270 </i>
   </energy>
  </scstep>
  <kpoints>
   <generation param="Gamma">
    <v type="int" name="divisions">       3        3        3 </v>
    <v name="usershift">      0.00000000       0.00000000       0.00000000 </v>
    <v name="genvec1">      0.33333333       0.00000000       0.00000000 </v>
    <v name="genvec2">      0.00000000       0.33333333       0.00000000 </v>
    <v name="genvec3">      0.00000000       0.00000000       0.33333333 </v>
    <v name="shift">      0.00000000       0.00000000       0.00000000 </v>
   </generation>
   <varray name="kpointlist" >
    <v>       0.00000000       0.00000000       0.00000000 </v>
    <v>       0.33333333       0.00000000       0.00000000 </v>
    <v>       0.00000000       0.33333333       0.00000000 </v>
    <v>       0.33333333       0.33333333       0.00000000 </v>
    <v>       0.00000000       0.00000000       0.33333333 </v>
    <v>       0.33333333       0.00000000       0.33333333 </v>
    <v>       0.00000000       0.33333333       0.33333333 </v>
    <v>       0.33333333       0.33333333       0.33333333 </v>
   </varray>
   <varray name="weights" >
    <v>       0.03703704 </v>
    <v>       0.07407407 </v>
    <v>       0.07407407 </v>
    <v>       0.14814815 </v>
    <v>       0.07407407 </v>
    <v>       0.14814815 </v>
    <v>       0.14814815 </v>
    <v>       0.29629630 </v>
   </varray>
  </kpoints>
  <scstep>
   <time name="total">    0.15    0.15</time>
   <energy>
    <i name="e_fr_energy">   -128.93985373 </i>
    <i name="e_wo_entrp">   -128.93985350 </i>
    <i name="e_0_energy">   -128.93985361 </i>
   </energy>
  </scstep>
  <scstep>
   <time name="total">    0.17    0.17</time>
   <energy>
    <i name="e_fr_energy">   -127.16223885 </i>
    <i name="e_wo_entrp">   -127.16223959 </i>
    <i name="e_0_energy">   -127.16223922 </i>
   </energy>
  </scstep>
  <scstep>
   <time name="total">    0.19    0.19</time>
   <energy>
    <i name="e_fr_energy">   -127.41924256 </i>
    <i name="e_wo_entrp">   -127.41924395 </i>
    <i name="e_0_energy">   -127.41924326 </i>
   </energy>
  </scstep>
  <scstep>
   <time name="total">    0.19    0.19</time>
   <energy>
    <i name="e_fr_energy">   -127.84781786 </i>
    <i name="e_wo_entrp">   -127.84781959 </i>
    <i name="e_0_energy">   -127.84781873 </i>
   </energy>
  </scstep>
  <scstep>
   <time name="total">    0.17    0.17</time>
   <energy>
    <i name="e_fr_energy">   -127.81860041 </i>
    <i name="e_wo_entrp">   -127.81860209 </i>
    <i name="e_0_energy">   -127.81860125 </i>
   </energy>
  </scstep>
  <scstep>
   <time name="total">    0.17    0.17</time>
   <energy>
    <i name="e_fr_energy">   -127.81977562 </i>
    <i name="e_wo_entrp">   -127.81977733 </i>
    <i name="e_0_energy">   -127.81977647 </i>
   </energy>
  </scstep>
  <scstep>
   <time name="total">    0.16    0.17</time>
   <energy>
    <i name="e_fr_energy">   -127.81781833 </i>
    <i name="e_wo_entrp">   -127.81782005 </i>
    <i name="e_0_energy">   -127.81781919 </i>
   </energy>
  </scstep>
  <scstep>
   <time name="total">    0.17    0.17</time>
   <energy>
    <i name="e_fr_energy">   -127.81844283 </i>
    <i name="e_wo_entrp">   -127.81844455 </i>
    <i name="e_0_energy">   -127.81844369 </i>
   </energy>
  </scstep>
  <scstep>
   <time name="total">    0.17    0.17</time>
   <energy>
    <i name="e_fr_energy">   -127.81789420 </i>
    <i name="e_wo_entrp">   -127.81789592 </i>
    <i name="e_0_energy">   -127.81789506 </i>
   </energy>
  </scstep>
  <scstep>
   <time name="total">    0.17    0.17</time>
   <energy>
    <i name="e_fr_energy">   -127.81795417 </i>
    <i name="e_wo_entrp">   -127.81795589 </i>
    <i name="e_0_energy">   -127.81795503 </i>
   </energy>
  </scstep>
  <scstep>
   <time name="total">    0.17    0.17</time>
   <energy>
    <i name="e_fr_energy">   -127.81800588 </i>
    <i name="e_wo_entrp">   -127.81800760 </i>
    <i name="e_0_energy">   -127.81800674 </i>
   </energy>
  </scstep>
  <scstep>
   <time name="total">    0.16    0.16</time>
   <energy>
    <i name="e_fr_energy">   -127.81803630 </i>
    <i name="e_wo_entrp">   -127.81803802 </i>
    <i name="e_0_energy">   -127.81803716 </i>
   </energy>
  </scstep>
  <scstep>
   <time name="total">    0.16    0.16</time>
   <energy>
    <i name="e_fr_energy">   -127.81804072 </i>
    <i name="e_wo_entrp">   -127.81804243 </i>
    <i name="e_0_energy">   -127.81804157 </i>
   </energy>
  </scstep>
  <scstep>
   <time name="total">    0.15    0.15</time>
   <energy>
    <i name="e_fr_energy">   -127.81804157 </i>
    <i name="e_wo_entrp">   -127.81804329 </i>
    <i name="e_0_energy">   -127.81804243 </i>
   </energy>
  </scstep>
  <scstep>
   <time name="total">    0.16    0.16</time>
   <energy>
    <i name="e_fr_energy">   -127.81803663 </i>
    <i name="e_wo_entrp">   -127.81803835 </i>
    <i name="e_0_energy">   -127.81803749 </i>
   </energy>
  </scstep>
  <kpoints>
   <generation param="Gamma">
    <v type="int" name="divisions">       3        3        3 </v>
    <v name="usershift">      0.00000000       0.00000000       0.00000000 </v>
    <v name="genvec1">      0.33333333       0.00000000       0.00000000 </v>
    <v name="genvec2">      0.00000000       0.33333333       0.00000000 </v>
    <v name="genvec3">      0.00000000       0.00000000       0.33333333 </v>
    <v name="shift">      0.00000000       0.00000000       0.00000000 </v>
   </generation>
   <varray name="kpointlist" >
    <v>       0.00000000       0.00000000       0.00000000 </v>
    <v>       0.33333333       0.00000000       0.00000000 </v>
    <v>       0.33333333       0.33333333       0.00000000 </v>
    <v>       0.00000000       0.00000000       0.33333333 </v>
    <v>       0.33333333       0.00000000       0.33333333 </v>
    <v>       0.33333333       0.33333333       0.33333333 </v>
   </varray>
   <varray name="weights" >
    <v>       0.03703704 </v>
    <v>       0.14814815 </v>
    <v>       0.14814815 </v>
    <v>       0.07407407 </v>
    <v>       0.29629630 </v>
    <v>       0.29629630 </v>
   </varray>
  </kpoints>
  <dynmat>
   <varray name="hessian" >
    <v>      -0.08298918       0.00000000       0.00000000       0.00033018       0.00000000       0.00000000       0.04965655       0.00000000       0.00000000      -0.00309622       0.00000000       0.00000000 </v>
    <v>       0.00000000      -0.07495022       0.00000000       0.00000000       0.00033018       0.00000000       0.00000000      -0.00129034       0.00000000       0.00000000       0.07430196       0.00000000 </v>
    <v>       0.00000000       0.00000000      -0.07894751       0.00000000       0.00000000       0.04914551       0.00000000       0.00000000       0.00582205       0.00000000       0.00000000       0.01899202 </v>
    <v>       0.00033018       0.00000000       0.00000000      -0.07495022       0.00000000       0.00000000      -0.00129034       0.00000000       0.00000000       0.07430196       0.00000000       0.00000000 </v>
    <v>       0.00000000       0.00033018       0.00000000       0.00000000      -0.08298918       0.00000000       0.00000000       0.04965655       0.00000000       0.00000000      -0.00309622       0.00000000 </v>
    <v>       0.00000000       0.00000000       0.04914551       0.00000000       0.00000000      -0.07894751       0.00000000       0.00000000       0.00582205       0.00000000       0.00000000       0.01899202 </v>
    <v>       0.04965655       0.00000000       0.00000000      -0.00129034       0.00000000       0.00000000      -0.03308100       0.00000000       0.00000000       0.00840320       0.00000000       0.00000000 </v>
    <v>       0.00000000      -0.00129034       0.00000000       0.00000000       0.04965655       0.00000000       0.00000000      -0.03308100       0.00000000       0.00000000       0.00840320       0.00000000 </v>
    <v>       0.00000000       0.00000000       0.00582205       0.00000000       0.00000000       0.00582205       0.00000000       0.00000000      -0.02273035       0.00000000       0.00000000       0.02685327 </v>
    <v>      -0.00309622       0.00000000       0.00000000       0.07430196       0.00000000       0.00000000       0.00840320       0.00000000       0.00000000      -0.08266094       0.00000000       0.00000000 </v>
    <v>       0.00000000       0.07430196       0.00000000       0.00000000      -0.00309622       0.00000000       0.00000000       0.00840320       0.00000000       0.00000000      -0.08266094       0.00000000 </v>
    <v>       0.00000000       0.00000000       0.01899202       0.00000000       0.00000000       0.01899202       0.00000000       0.00000000       0.02685327       0.00000000       0.00000000      -0.08163194 </v>
   </varray>
   <v name="eigenvalues"> -1.54173534E-01 -1.54173534E-01 -1.28093018E-01 -1.12944279E-01 -1.12944279E-01 -9.94019093E-02 -3.47624923E-02 -6.56456963E-03 -6.56456963E-03  1.18835853E-07  1.04243338E-06  1.04243338E-06</v>
   <varray name="eigenvectors" >
    <v>   1.03172910E-01 -9.67848264E-02  6.54495406E-16 -6.71068189E-01  1.48801155E-02 -8.68427846E-16 -9.89611174E-02 -1.42726697E-02  1.35736684E-16  7.13339004E-01  1.02881336E-01 -9.68961340E-19</v>
    <v>  -1.48801155E-02 -6.71068189E-01 -8.98556105E-17  9.67848264E-02  1.03172910E-01  3.63102724E-17  1.42726697E-02 -9.89611174E-02 -3.41736851E-17 -1.02881336E-01  7.13339004E-01 -1.08719527E-17</v>
    <v>  -1.56456179E-15 -1.44760861E-16  7.07106781E-01  4.55422301E-16 -1.58149448E-15 -7.07106781E-01  1.22296132E-15  5.32008951E-16  5.04718632E-17 -3.23972109E-16  1.54654005E-16  9.60954688E-19</v>
    <v>  -8.41569169E-01 -1.05218769E-02 -1.32546615E-15 -1.24144393E-01 -7.13273227E-02  1.28999152E-15  5.13245517E-01  4.35002017E-02  1.89462208E-17  7.61336986E-02  6.45272318E-03 -3.18220587E-24</v>
    <v>   7.13273227E-02 -1.24144393E-01 -8.59559652E-16  1.05218769E-02 -8.41569169E-01  8.97648182E-16 -4.35002017E-02  5.13245517E-01  3.48626575E-18 -6.45272318E-03  7.61336986E-02 -6.27611253E-18</v>
    <v>   4.50124117E-19 -2.16464687E-17 -2.23402094E-01  2.11939258E-18 -4.30391453E-18 -2.23402094E-01 -2.06706822E-19  1.92403430E-18 -2.83219783E-01 -7.03051174E-19  6.58375400E-18  9.05521708E-01</v>
    <v>  -8.17857376E-18 -7.84700403E-17 -5.34734407E-01  1.27213545E-16  6.96068966E-18 -5.34734407E-01 -4.50129383E-18  7.59369727E-19  6.51544532E-01  6.87642104E-17 -6.79932377E-17 -6.00662262E-02</v>
    <v>  -3.18310598E-01 -1.97995102E-01 -5.66948257E-17  5.61042576E-01  1.12333613E-01  5.37004468E-17 -4.61845758E-01  1.62987984E-01  2.09226613E-17  5.09763355E-01 -1.79898375E-01 -6.46932983E-18</v>
    <v>  -1.12333613E-01  5.61042576E-01 -1.87583538E-16  1.97995102E-01 -3.18310598E-01  1.83650652E-16 -1.62987984E-01 -4.61845758E-01  1.96306094E-16  1.79898375E-01  5.09763355E-01  9.67405517E-17</v>
    <v>  -1.06376474E-13 -4.96281769E-13 -4.05155055E-01 -1.09231971E-13 -4.83308796E-13 -4.05155055E-01 -1.84097260E-13 -8.36423505E-13 -7.03758679E-01 -1.12909509E-13 -5.12987838E-13 -4.20026767E-01</v>
    <v>  -3.80272263E-01  1.34957236E-01 -5.77544429E-14 -3.90631994E-01  1.31378111E-01 -5.76122595E-14 -6.58122750E-01  2.27371103E-01 -1.00190441E-13 -4.03784834E-01  1.39501336E-01 -5.97907478E-14</v>
    <v>  -1.31378111E-01 -3.90631994E-01  4.94804413E-13 -1.34957236E-01 -3.80272263E-01  4.95094323E-13 -2.27371103E-01 -6.58122750E-01  8.59672912E-13 -1.39501336E-01 -4.03784834E-01  5.13094866E-13</v>
   </varray>
  </dynmat>
  <time name="totalsc">   25.52   26.22</time>
  <eigenvalues>
   <array>
    <dimension dim="1">band</dimension>
    <dimension dim="2">kpoint</dimension>
    <dimension dim="3">spin</dimension>
    <field>eigene</field>
    <field>occ</field>
    <set>
     <set comment="spin 1">
      <set comment="kpoint 1">
       <r>  -19.2110    1.0000 </r>
       <r>  -19.2110    1.0000 </r>
       <r>  -19.2097    1.0000 </r>
       <r>  -19.2002    1.0000 </r>
       <r>  -19.1598    1.0000 </r>
       <r>   -9.1237    1.0000 </r>
       <r>   -7.3742    1.0000 </r>
       <r>   -3.5065    1.0000 </r>
       <r>    0.5070    1.0000 </r>
       <r>    0.5070    1.0000 </r>
       <r>    1.8827    1.0000 </r>
       <r>    2.9700    1.0000 </r>
       <r>    3.2170    0.4257 </r>
       <r>    3.2170    0.4256 </r>
       <r>    4.1631    0.0000 </r>
       <r>    4.4150    0.0000 </r>
       <r>    6.2070    0.0000 </r>
       <r>    6.2070    0.0000 </r>
       <r>    6.3708    0.0000 </r>
       <r>    8.9445    0.0000 </r>
       <r>   11.4780    0.0000 </r>
       <r>   11.4780    0.0000 </r>
       <r>   12.0820    0.0000 </r>
       <r>   12.2120    0.0000 </r>
       <r>   12.4948    0.0000 </r>
       <r>   13.2404    0.0000 </r>
       <r>   13.2708    0.0000 </r>
       <r>   13.2708    0.0000 </r>
       <r>   13.9605    0.0000 </r>
       <r>   15.0666    0.0000 </r>
       <r>   15.0666    0.0000 </r>
       <r>   15.5651    0.0000 </r>
      </set>
      <set comment="kpoint 2">
       <r>  -19.2200    1.0000 </r>
       <r>  -19.2105    1.0000 </r>
       <r>  -19.2028    1.0000 </r>
       <r>  -19.1901    1.0000 </r>
       <r>  -19.1633    1.0000 </r>
       <r>   -8.5196    1.0000 </r>
       <r>   -7.4972    1.0000 </r>
       <r>   -3.2249    1.0000 </r>
       <r>   -1.3695    1.0000 </r>
       <r>   -0.3836    1.0000 </r>
       <r>    1.0303    1.0000 </r>
       <r>    1.1182    1.0000 </r>
       <r>    2.8362    1.0000 </r>
       <r>    4.2293    0.0000 </r>
       <r>    5.1753    0.0000 </r>
       <r>    6.7359    0.0000 </r>
       <r>    6.9483    0.0000 </r>
       <r>    7.5480    0.0000 </r>
       <r>    8.4796    0.0000 </r>
       <r>    9.0864    0.0000 </r>
       <r>    9.1562    0.0000 </r>
       <r>   10.1197    0.0000 </r>
       <r>   10.5295    0.0000 </r>
       <r>   11.5658    0.0000 </r>
       <r>   11.7738    0.0000 </r>
       <r>   11.9099    0.0000 </r>
       <r>   13.7671    0.0000 </r>
       <r>   14.7888    0.0000 </r>
       <r>   15.3328    0.0000 </r>
       <r>   15.4360    0.0000 </r>
       <r>   17.0477    0.0000 </r>
       <r>   17.2623    0.0000 </r>
      </set>
      <set comment="kpoint 3">
       <r>  -19.2195    1.0000 </r>
       <r>  -19.2190    1.0000 </r>
       <r>  -19.1942    1.0000 </r>
       <r>  -19.1819    1.0000 </r>
       <r>  -19.1672    1.0000 </r>
       <r>   -7.9745    1.0000 </r>
       <r>   -7.3276    1.0000 </r>
       <r>   -3.4037    1.0000 </r>
       <r>   -2.4290    1.0000 </r>
       <r>   -0.0444    1.0000 </r>
       <r>    0.2529    1.0000 </r>
       <r>    1.0165    1.0000 </r>
       <r>    1.1375    1.0000 </r>
       <r>    4.2486    0.0000 </r>
       <r>    4.9357    0.0000 </r>
       <r>    5.8218    0.0000 </r>
       <r>    6.0671    0.0000 </r>
       <r>    8.7824    0.0000 </r>
       <r>    8.9225    0.0000 </r>
       <r>    9.8255    0.0000 </r>
       <r>   10.5101    0.0000 </r>
       <r>   10.8266    0.0000 </r>
       <r>   12.7418    0.0000 </r>
       <r>   13.2468    0.0000 </r>
       <r>   13.6883    0.0000 </r>
       <r>   14.2764    0.0000 </r>
       <r>   14.3441    0.0000 </r>
       <r>   14.8565    0.0000 </r>
       <r>   16.0170    0.0000 </r>
       <r>   16.2921    0.0000 </r>
       <r>   16.7869    0.0000 </r>
       <r>   16.9770    0.0000 </r>
      </set>
      <set comment="kpoint 4">
       <r>  -19.2111    1.0000 </r>
       <r>  -19.2111    1.0000 </r>
       <r>  -19.2097    1.0000 </r>
       <r>  -19.2000    1.0000 </r>
       <r>  -19.1598    1.0000 </r>
       <r>   -8.8103    1.0000 </r>
       <r>   -7.9892    1.0000 </r>
       <r>   -2.4145    1.0000 </r>
       <r>   -0.2081    1.0000 </r>
       <r>    0.7906    1.0000 </r>
       <r>    0.7906    1.0000 </r>
       <r>    2.4088    1.0000 </r>
       <r>    2.4088    1.0000 </r>
       <r>    4.0268    0.0000 </r>
       <r>    4.7935    0.0000 </r>
       <r>    5.0942    0.0000 </r>
       <r>    5.8053    0.0000 </r>
       <r>    7.5824    0.0000 </r>
       <r>    7.5824    0.0000 </r>
       <r>    9.6430    0.0000 </r>
       <r>    9.9585    0.0000 </r>
       <r>    9.9585    0.0000 </r>
       <r>   10.3705    0.0000 </r>
       <r>   10.8149    0.0000 </r>
       <r>   12.3969    0.0000 </r>
       <r>   13.8140    0.0000 </r>
       <r>   13.8140    0.0000 </r>
       <r>   13.9999    0.0000 </r>
       <r>   14.2392    0.0000 </r>
       <r>   14.6888    0.0000 </r>
       <r>   16.1460    0.0000 </r>
       <r>   16.1460    0.0000 </r>
      </set>
      <set comment="kpoint 5">
       <r>  -19.2201    1.0000 </r>
       <r>  -19.2105    1.0000 </r>
       <r>  -19.2028    1.0000 </r>
       <r>  -19.1901    1.0000 </r>
       <r>  -19.1633    1.0000 </r>
       <r>   -8.2930    1.0000 </r>
       <r>   -7.7767    1.0000 </r>
       <r>   -3.1090    1.0000 </r>
       <r>   -2.1998    1.0000 </r>
       <r>    0.5493    1.0000 </r>
       <r>    1.1686    1.0000 </r>
       <r>    2.1458    1.0000 </r>
       <r>    2.6193    1.0000 </r>
       <r>    3.2840    0.0186 </r>
       <r>    4.6635    0.0000 </r>
       <r>    6.7681    0.0000 </r>
       <r>    7.1267    0.0000 </r>
       <r>    7.1698    0.0000 </r>
       <r>    8.1662    0.0000 </r>
       <r>    8.6932    0.0000 </r>
       <r>    9.8492    0.0000 </r>
       <r>   10.2787    0.0000 </r>
       <r>   11.6451    0.0000 </r>
       <r>   11.6868    0.0000 </r>
       <r>   11.7519    0.0000 </r>
       <r>   12.7352    0.0000 </r>
       <r>   13.3938    0.0000 </r>
       <r>   13.7378    0.0000 </r>
       <r>   14.5270    0.0000 </r>
       <r>   15.0994    0.0000 </r>
       <r>   17.0158    0.0000 </r>
       <r>   17.2699    0.0000 </r>
      </set>
      <set comment="kpoint 6">
       <r>  -19.2196    1.0000 </r>
       <r>  -19.2191    1.0000 </r>
       <r>  -19.1941    1.0000 </r>
       <r>  -19.1819    1.0000 </r>
       <r>  -19.1672    1.0000 </r>
       <r>   -7.8218    1.0000 </r>
       <r>   -7.4755    1.0000 </r>
       <r>   -3.2213    1.0000 </r>
       <r>   -2.7415    1.0000 </r>
       <r>   -0.4767    1.0000 </r>
       <r>    0.1985    1.0000 </r>
       <r>    1.1694    1.0000 </r>
       <r>    1.2923    1.0000 </r>
       <r>    4.7069    0.0000 </r>
       <r>    5.6531    0.0000 </r>
       <r>    6.1275    0.0000 </r>
       <r>    7.5949    0.0000 </r>
       <r>    7.9896    0.0000 </r>
       <r>    8.9053    0.0000 </r>
       <r>    9.1134    0.0000 </r>
       <r>    9.5908    0.0000 </r>
       <r>   10.3560    0.0000 </r>
       <r>   11.4124    0.0000 </r>
       <r>   12.1115    0.0000 </r>
       <r>   12.4491    0.0000 </r>
       <r>   13.9259    0.0000 </r>
       <r>   14.6688    0.0000 </r>
       <r>   15.2151    0.0000 </r>
       <r>   15.4092    0.0000 </r>
       <r>   16.1008    0.0000 </r>
       <r>   16.8426    0.0000 </r>
       <r>   17.4327    0.0000 </r>
      </set>
     </set>
    </set>
   </array>
  </eigenvalues>
  <separator name="orbital magnetization" >
   <v name="MAGDIPOLOUT">      0.00000000      0.00000000      0.00000000</v>
  </separator>
  <dos>
   <i name="efermi">      3.21036564 </i>
   <total>
    <array>
     <dimension dim="1">gridpoints</dimension>
     <dimension dim="2">spin</dimension>
     <field>energy</field>
     <field>total</field>
     <field>integrated</field>
     <set>
      <set comment="spin 1">
       <r>   -21.0528     0.0000     0.0000 </r>
       <r>   -20.9184     0.0000     0.0000 </r>
       <r>   -20.7840     0.0000     0.0000 </r>
       <r>   -20.6496     0.0000     0.0000 </r>
       <r>   -20.5152     0.0000     0.0000 </r>
       <r>   -20.3808     0.0000     0.0000 </r>
       <r>   -20.2464     0.0000     0.0000 </r>
       <r>   -20.1120     0.0000     0.0000 </r>
       <r>   -19.9776     0.0000     0.0000 </r>
       <r>   -19.8432     0.0000     0.0000 </r>
       <r>   -19.7088     0.0000     0.0000 </r>
       <r>   -19.5744     0.0000     0.0000 </r>
       <r>   -19.4400     0.0000     0.0000 </r>
       <r>   -19.3056     0.2145     0.0288 </r>
       <r>   -19.1713    54.6286     7.3706 </r>
       <r>   -19.0369    19.5627     9.9997 </r>
       <r>   -18.9025     0.0026    10.0000 </r>
       <r>   -18.7681     0.0000    10.0000 </r>
       <r>   -18.6337     0.0000    10.0000 </r>
       <r>   -18.4993     0.0000    10.0000 </r>
       <r>   -18.3649     0.0000    10.0000 </r>
       <r>   -18.2305     0.0000    10.0000 </r>
       <r>   -18.0961     0.0000    10.0000 </r>
       <r>   -17.9617     0.0000    10.0000 </r>
       <r>   -17.8273     0.0000    10.0000 </r>
       <r>   -17.6929     0.0000    10.0000 </r>
       <r>   -17.5585     0.0000    10.0000 </r>
       <r>   -17.4241     0.0000    10.0000 </r>
       <r>   -17.2897     0.0000    10.0000 </r>
       <r>   -17.1554     0.0000    10.0000 </r>
       <r>   -17.0210     0.0000    10.0000 </r>
       <r>   -16.8866     0.0000    10.0000 </r>
       <r>   -16.7522     0.0000    10.0000 </r>
       <r>   -16.6178     0.0000    10.0000 </r>
       <r>   -16.4834     0.0000    10.0000 </r>
       <r>   -16.3490     0.0000    10.0000 </r>
       <r>   -16.2146     0.0000    10.0000 </r>
       <r>   -16.0802     0.0000    10.0000 </r>
       <r>   -15.9458     0.0000    10.0000 </r>
       <r>   -15.8114     0.0000    10.0000 </r>
       <r>   -15.6770     0.0000    10.0000 </r>
       <r>   -15.5426     0.0000    10.0000 </r>
       <r>   -15.4082     0.0000    10.0000 </r>
       <r>   -15.2738     0.0000    10.0000 </r>
       <r>   -15.1394     0.0000    10.0000 </r>
       <r>   -15.0051     0.0000    10.0000 </r>
       <r>   -14.8707     0.0000    10.0000 </r>
       <r>   -14.7363     0.0000    10.0000 </r>
       <r>   -14.6019     0.0000    10.0000 </r>
       <r>   -14.4675     0.0000    10.0000 </r>
       <r>   -14.3331     0.0000    10.0000 </r>
       <r>   -14.1987     0.0000    10.0000 </r>
       <r>   -14.0643     0.0000    10.0000 </r>
       <r>   -13.9299     0.0000    10.0000 </r>
       <r>   -13.7955     0.0000    10.0000 </r>
       <r>   -13.6611     0.0000    10.0000 </r>
       <r>   -13.5267     0.0000    10.0000 </r>
       <r>   -13.3923     0.0000    10.0000 </r>
       <r>   -13.2579     0.0000    10.0000 </r>
       <r>   -13.1235     0.0000    10.0000 </r>
       <r>   -12.9891     0.0000    10.0000 </r>
       <r>   -12.8548     0.0000    10.0000 </r>
       <r>   -12.7204     0.0000    10.0000 </r>
       <r>   -12.5860     0.0000    10.0000 </r>
       <r>   -12.4516     0.0000    10.0000 </r>
       <r>   -12.3172     0.0000    10.0000 </r>
       <r>   -12.1828     0.0000    10.0000 </r>
       <r>   -12.0484     0.0000    10.0000 </r>
       <r>   -11.9140     0.0000    10.0000 </r>
       <r>   -11.7796     0.0000    10.0000 </r>
       <r>   -11.6452     0.0000    10.0000 </r>
       <r>   -11.5108     0.0000    10.0000 </r>
       <r>   -11.3764     0.0000    10.0000 </r>
       <r>   -11.2420     0.0000    10.0000 </r>
       <r>   -11.1076     0.0000    10.0000 </r>
       <r>   -10.9732     0.0000    10.0000 </r>
       <r>   -10.8389     0.0000    10.0000 </r>
       <r>   -10.7045     0.0000    10.0000 </r>
       <r>   -10.5701     0.0000    10.0000 </r>
       <r>   -10.4357     0.0000    10.0000 </r>
       <r>   -10.3013     0.0000    10.0000 </r>
       <r>   -10.1669     0.0000    10.0000 </r>
       <r>   -10.0325     0.0000    10.0000 </r>
       <r>    -9.8981     0.0000    10.0000 </r>
       <r>    -9.7637     0.0000    10.0000 </r>
       <r>    -9.6293     0.0000    10.0000 </r>
       <r>    -9.4949     0.0000    10.0000 </r>
       <r>    -9.3605     0.0000    10.0000 </r>
       <r>    -9.2261     0.0010    10.0001 </r>
       <r>    -9.0917     0.4493    10.0605 </r>
       <r>    -8.9573     0.1009    10.0741 </r>
       <r>    -8.8229     0.3971    10.1274 </r>
       <r>    -8.6886     0.7049    10.2222 </r>
       <r>    -8.5542     0.3620    10.2708 </r>
       <r>    -8.4198     1.8385    10.5179 </r>
       <r>    -8.2854     2.5855    10.8654 </r>
       <r>    -8.1510     1.8283    11.1111 </r>
       <r>    -8.0166     0.4995    11.1782 </r>
       <r>    -7.8822     2.9960    11.5809 </r>
       <r>    -7.7478     7.6383    12.6074 </r>
       <r>    -7.6134     0.9935    12.7409 </r>
       <r>    -7.4790     3.5661    13.2202 </r>
       <r>    -7.3446     4.1801    13.7820 </r>
       <r>    -7.2102     1.6214    13.9999 </r>
       <r>    -7.0758     0.0010    14.0000 </r>
       <r>    -6.9414     0.0000    14.0000 </r>
       <r>    -6.8070     0.0000    14.0000 </r>
       <r>    -6.6727     0.0000    14.0000 </r>
       <r>    -6.5383     0.0000    14.0000 </r>
       <r>    -6.4039     0.0000    14.0000 </r>
       <r>    -6.2695     0.0000    14.0000 </r>
       <r>    -6.1351     0.0000    14.0000 </r>
       <r>    -6.0007     0.0000    14.0000 </r>
       <r>    -5.8663     0.0000    14.0000 </r>
       <r>    -5.7319     0.0000    14.0000 </r>
       <r>    -5.5975     0.0000    14.0000 </r>
       <r>    -5.4631     0.0000    14.0000 </r>
       <r>    -5.3287     0.0000    14.0000 </r>
       <r>    -5.1943     0.0000    14.0000 </r>
       <r>    -5.0599     0.0000    14.0000 </r>
       <r>    -4.9255     0.0000    14.0000 </r>
       <r>    -4.7911     0.0000    14.0000 </r>
       <r>    -4.6567     0.0000    14.0000 </r>
       <r>    -4.5224     0.0000    14.0000 </r>
       <r>    -4.3880     0.0000    14.0000 </r>
       <r>    -4.2536     0.0000    14.0000 </r>
       <r>    -4.1192     0.0000    14.0000 </r>
       <r>    -3.9848     0.0000    14.0000 </r>
       <r>    -3.8504     0.0000    14.0000 </r>
       <r>    -3.7160     0.0000    14.0000 </r>
       <r>    -3.5816     0.0093    14.0012 </r>
       <r>    -3.4472     0.7566    14.1029 </r>
       <r>    -3.3128     2.0143    14.3736 </r>
       <r>    -3.1784     5.9953    15.1794 </r>
       <r>    -3.0440     4.8579    15.8322 </r>
       <r>    -2.9096     0.1460    15.8519 </r>
       <r>    -2.7752     0.7485    15.9524 </r>
       <r>    -2.6408     3.6511    16.4431 </r>
       <r>    -2.5065     0.0464    16.4494 </r>
       <r>    -2.3721     3.0259    16.8560 </r>
       <r>    -2.2377     0.8700    16.9729 </r>
       <r>    -2.1033     3.7700    17.4796 </r>
       <r>    -1.9689     0.0140    17.4815 </r>
       <r>    -1.8345     0.0000    17.4815 </r>
       <r>    -1.7001     0.0000    17.4815 </r>
       <r>    -1.5657     0.0000    17.4815 </r>
       <r>    -1.4313     0.0888    17.4934 </r>
       <r>    -1.2969     2.0718    17.7719 </r>
       <r>    -1.1625     0.0441    17.7778 </r>
       <r>    -1.0281     0.0000    17.7778 </r>
       <r>    -0.8937     0.0000    17.7778 </r>
       <r>    -0.7593     0.0000    17.7778 </r>
       <r>    -0.6249     0.0001    17.7778 </r>
       <r>    -0.4905     1.5372    17.9844 </r>
       <r>    -0.3562     4.5928    18.6016 </r>
       <r>    -0.2218     0.8693    18.7184 </r>
       <r>    -0.0874     0.9634    18.8479 </r>
       <r>     0.0470     1.9477    19.1097 </r>
       <r>     0.1814     1.4465    19.3041 </r>
       <r>     0.3158     5.0932    19.9886 </r>
       <r>     0.4502     0.1558    20.0095 </r>
       <r>     0.5846     4.7234    20.6443 </r>
       <r>     0.7190     0.7647    20.7471 </r>
       <r>     0.8534     2.0739    21.0258 </r>
       <r>     0.9878     0.7947    21.1326 </r>
       <r>     1.1222     6.4364    21.9976 </r>
       <r>     1.2566    11.1189    23.4919 </r>
       <r>     1.3910     3.7689    23.9984 </r>
       <r>     1.5254     0.0116    24.0000 </r>
       <r>     1.6598     0.0000    24.0000 </r>
       <r>     1.7941     0.0034    24.0005 </r>
       <r>     1.9285     0.4942    24.0669 </r>
       <r>     2.0629     0.0957    24.0797 </r>
       <r>     2.1973     4.0475    24.6237 </r>
       <r>     2.3317     0.3520    24.6710 </r>
       <r>     2.4661     2.0568    24.9474 </r>
       <r>     2.6005     1.4288    25.1394 </r>
       <r>     2.7349     3.0985    25.5559 </r>
       <r>     2.8693     1.8182    25.8002 </r>
       <r>     3.0037     0.8417    25.9133 </r>
       <r>     3.1381     0.1079    25.9278 </r>
       <r>     3.2725     2.6632    26.2858 </r>
       <r>     3.4069     2.8332    26.6665 </r>
       <r>     3.5413     0.0011    26.6667 </r>
       <r>     3.6757     0.0000    26.6667 </r>
       <r>     3.8100     0.0000    26.6667 </r>
       <r>     3.9444     0.0109    26.6681 </r>
       <r>     4.0788     1.0183    26.8050 </r>
       <r>     4.2132     1.6475    27.0264 </r>
       <r>     4.3476     3.3954    27.4827 </r>
       <r>     4.4820     0.5261    27.5534 </r>
       <r>     4.6164     0.4422    27.6128 </r>
       <r>     4.7508     8.0158    28.6901 </r>
       <r>     4.8852     1.6427    28.9109 </r>
       <r>     5.0196     2.0408    29.1852 </r>
       <r>     5.1540     1.6546    29.4075 </r>
       <r>     5.2884     1.6512    29.6294 </r>
       <r>     5.4228     0.0015    29.6296 </r>
       <r>     5.5572     0.0147    29.6316 </r>
       <r>     5.6916     3.7853    30.1403 </r>
       <r>     5.8260     2.6081    30.4908 </r>
       <r>     5.9603     1.3110    30.6670 </r>
       <r>     6.0947     2.5049    31.0037 </r>
       <r>     6.2291     4.9070    31.6631 </r>
       <r>     6.3635     0.5323    31.7347 </r>
       <r>     6.4979     0.3206    31.7778 </r>
       <r>     6.6323     0.0041    31.7783 </r>
       <r>     6.7667     3.9146    32.3044 </r>
       <r>     6.9011     2.8956    32.6936 </r>
       <r>     7.0355     2.0117    32.9639 </r>
       <r>     7.1699     6.1212    33.7866 </r>
       <r>     7.3043     2.6901    34.1481 </r>
       <r>     7.4387     0.0026    34.1485 </r>
       <r>     7.5731     3.7308    34.6499 </r>
       <r>     7.7075     5.0820    35.3328 </r>
       <r>     7.8419     0.0037    35.3333 </r>
       <r>     7.9762     1.5563    35.5425 </r>
       <r>     8.1106     3.1083    35.9602 </r>
       <r>     8.2450     4.0975    36.5109 </r>
       <r>     8.3794     0.0617    36.5192 </r>
       <r>     8.5138     1.8330    36.7655 </r>
       <r>     8.6482     0.8140    36.8749 </r>
       <r>     8.7826     5.0446    37.5529 </r>
       <r>     8.9170     4.9857    38.2229 </r>
       <r>     9.0514     3.8356    38.7384 </r>
       <r>     9.1858     7.7466    39.7795 </r>
       <r>     9.3202     0.5382    39.8519 </r>
       <r>     9.4546     0.0003    39.8519 </r>
       <r>     9.5890     2.1857    40.1456 </r>
       <r>     9.7234     3.3178    40.5915 </r>
       <r>     9.8578     4.4464    41.1891 </r>
       <r>     9.9922     4.0047    41.7273 </r>
       <r>    10.1265     1.6460    41.9485 </r>
       <r>    10.2609     2.3060    42.2584 </r>
       <r>    10.3953     7.6969    43.2928 </r>
       <r>    10.5297     3.5274    43.7669 </r>
       <r>    10.6641     1.7343    44.0000 </r>
       <r>    10.7985     0.8247    44.1108 </r>
       <r>    10.9329     2.4791    44.4440 </r>
       <r>    11.0673     0.0034    44.4444 </r>
       <r>    11.2017     0.0000    44.4444 </r>
       <r>    11.3361     0.0682    44.4536 </r>
       <r>    11.4705     4.5860    45.0699 </r>
       <r>    11.6049     3.3726    45.5232 </r>
       <r>    11.7393    10.1412    46.8861 </r>
       <r>    11.8737     5.3113    47.5999 </r>
       <r>    12.0081     1.8863    47.8534 </r>
       <r>    12.1424     4.0976    48.4041 </r>
       <r>    12.2768     1.3846    48.5902 </r>
       <r>    12.4112     1.3726    48.7746 </r>
       <r>    12.5456     4.6528    49.4000 </r>
       <r>    12.6800     0.4052    49.4544 </r>
       <r>    12.8144     6.1648    50.2829 </r>
       <r>    12.9488     0.0995    50.2963 </r>
       <r>    13.0832     0.0000    50.2963 </r>
       <r>    13.2176     0.6672    50.3860 </r>
       <r>    13.3520     3.6988    50.8831 </r>
       <r>    13.4864     3.8822    51.4048 </r>
       <r>    13.6208     0.0834    51.4160 </r>
       <r>    13.7552     6.0305    52.2265 </r>
       <r>    13.8896     5.5768    52.9759 </r>
       <r>    14.0240     5.1094    53.6626 </r>
       <r>    14.1584     0.3190    53.7055 </r>
       <r>    14.2927     2.6729    54.0647 </r>
       <r>    14.4271     2.8153    54.4430 </r>
       <r>    14.5615     3.7018    54.9405 </r>
       <r>    14.6959     4.7981    55.5854 </r>
       <r>    14.8303     3.8785    56.1066 </r>
       <r>    14.9647     1.9626    56.3704 </r>
       <r>    15.0991     3.0960    56.7865 </r>
       <r>    15.2335     5.5008    57.5257 </r>
       <r>    15.3679     3.7702    58.0324 </r>
       <r>    15.5023     6.3081    58.8802 </r>
       <r>    15.6367     0.6041    58.9614 </r>
       <r>    15.7711     0.0118    58.9630 </r>
       <r>    15.9055     0.0018    58.9632 </r>
       <r>    16.0399     1.8221    59.2081 </r>
       <r>    16.1743     6.4454    60.0743 </r>
       <r>    16.3087     2.0494    60.3497 </r>
       <r>    16.4430     0.7048    60.4444 </r>
       <r>    16.5774     0.0000    60.4444 </r>
       <r>    16.7118     0.0378    60.4495 </r>
       <r>    16.8462     4.4505    61.0476 </r>
       <r>    16.9806     4.0868    61.5969 </r>
       <r>    17.1150     6.7839    62.5086 </r>
       <r>    17.2494     2.1022    62.7911 </r>
       <r>    17.3838     4.9503    63.4564 </r>
       <r>    17.5182     4.0106    63.9954 </r>
       <r>    17.6526     0.0343    64.0000 </r>
       <r>    17.7870     0.0000    64.0000 </r>
       <r>    17.9214     0.0000    64.0000 </r>
       <r>    18.0558     0.0000    64.0000 </r>
       <r>    18.1902     0.0000    64.0000 </r>
       <r>    18.3246     0.0000    64.0000 </r>
       <r>    18.4589     0.0000    64.0000 </r>
       <r>    18.5933     0.0000    64.0000 </r>
       <r>    18.7277     0.0000    64.0000 </r>
       <r>    18.8621     0.0000    64.0000 </r>
       <r>    18.9965     0.0000    64.0000 </r>
       <r>    19.1309     0.0000    64.0000 </r>
       <r>    19.2653     0.0000    64.0000 </r>
      </set>
     </set>
    </array>
   </total>
  </dos>
 </calculation>
 <structure name="finalpos" >
  <crystal>
   <varray name="basis" >
    <v>       4.30014086       0.00000000       0.00000000 </v>
    <v>       0.00000000       4.30014086       0.00000000 </v>
    <v>       0.00000000       0.00000000       6.14586115 </v>
   </varray>
   <i name="volume">    113.64441771 </i>
   <varray name="rec_basis" >
    <v>       0.23255052       0.00000000       0.00000000 </v>
    <v>       0.00000000       0.23255052       0.00000000 </v>
    <v>       0.00000000       0.00000000       0.16271113 </v>
   </varray>
  </crystal>
  <varray name="positions" >
   <v>       0.50000000       0.00000000       0.72573602 </v>
   <v>       0.00000000       0.50000000       0.27426400 </v>
   <v>       0.00000000       0.00000000       0.00000000 </v>
   <v>       0.50000000       0.50000000       0.50000000 </v>
  </varray>
 </structure>
</modeling>
