CsAs                                    
           1
     4.300141    0.000000    0.000000
     0.000000    4.300141    0.000000
     0.000000    0.000000    6.145861
   Ga   Bi   As
   2   1   1
Direct configuration=     1
   0.50000000  0.00000000  0.72573602
   0.00000000  0.50000000  0.27426400
   0.00000000  0.00000000  0.00000000
   0.50000000  0.50000000  0.50000000
