   4   4   0   0
  0.2841110E+02  0.4300141E-09  0.4300141E-09  0.6145861E-09  0.5000000E-15
  1.000000000000000E-004
  CAR 
 Ga2BiAs                                 
     12.88551550    -21.29256260  301      3.08021763      1.00000000
    -21.293  0.0000E+00  0.0000E+00
    -21.179  0.0000E+00  0.0000E+00
    -21.065  0.0000E+00  0.0000E+00
    -20.951 -0.9860E-28 -0.1123E-28
    -20.837 -0.8762E-24 -0.9984E-25
    -20.723 -0.4059E-20 -0.4625E-21
    -20.609 -0.9796E-17 -0.1116E-17
    -20.495 -0.1231E-13 -0.1403E-14
    -20.381 -0.7774E-11 -0.8871E-12
    -20.267 -0.2614E-08 -0.2987E-09
    -20.153 -0.4534E-06 -0.5195E-07
    -20.039 -0.4029E-04 -0.4642E-05
    -19.925 -0.1813E-02 -0.2112E-03
    -19.812 -0.4035E-01 -0.4808E-02
    -19.698 -0.4203E+00 -0.5269E-01
    -19.584 -0.1713E+01 -0.2479E+00
    -19.470  0.2155E+00 -0.2234E+00
    -19.356  0.1759E+02  0.1781E+01
    -19.242  0.3892E+02  0.6215E+01
    -19.128  0.2992E+02  0.9624E+01
    -19.014  0.6296E+01  0.1034E+02
    -18.900 -0.1895E+01  0.1013E+02
    -18.786 -0.9561E+00  0.1002E+02
    -18.672 -0.1390E+00  0.1000E+02
    -18.558 -0.8943E-02  0.1000E+02
    -18.444 -0.2790E-03  0.1000E+02
    -18.330 -0.4370E-05  0.1000E+02
    -18.217 -0.3492E-07  0.1000E+02
    -18.103 -0.1437E-09  0.1000E+02
    -17.989 -0.3055E-12  0.1000E+02
    -17.875  0.0000E+00  0.1000E+02
    -17.761  0.0000E+00  0.1000E+02
    -17.647  0.0000E+00  0.1000E+02
    -17.533  0.0000E+00  0.1000E+02
    -17.419  0.0000E+00  0.1000E+02
    -17.305  0.0000E+00  0.1000E+02
    -17.191  0.0000E+00  0.1000E+02
    -17.077  0.0000E+00  0.1000E+02
    -16.963  0.0000E+00  0.1000E+02
    -16.849  0.0000E+00  0.1000E+02
    -16.735  0.0000E+00  0.1000E+02
    -16.622  0.0000E+00  0.1000E+02
    -16.508  0.0000E+00  0.1000E+02
    -16.394  0.0000E+00  0.1000E+02
    -16.280  0.0000E+00  0.1000E+02
    -16.166  0.0000E+00  0.1000E+02
    -16.052  0.0000E+00  0.1000E+02
    -15.938  0.0000E+00  0.1000E+02
    -15.824  0.0000E+00  0.1000E+02
    -15.710  0.0000E+00  0.1000E+02
    -15.596  0.0000E+00  0.1000E+02
    -15.482  0.0000E+00  0.1000E+02
    -15.368  0.0000E+00  0.1000E+02
    -15.254  0.0000E+00  0.1000E+02
    -15.141  0.0000E+00  0.1000E+02
    -15.027  0.0000E+00  0.1000E+02
    -14.913  0.0000E+00  0.1000E+02
    -14.799  0.0000E+00  0.1000E+02
    -14.685  0.0000E+00  0.1000E+02
    -14.571  0.0000E+00  0.1000E+02
    -14.457  0.0000E+00  0.1000E+02
    -14.343  0.0000E+00  0.1000E+02
    -14.229  0.0000E+00  0.1000E+02
    -14.115  0.0000E+00  0.1000E+02
    -14.001  0.0000E+00  0.1000E+02
    -13.887  0.0000E+00  0.1000E+02
    -13.773  0.0000E+00  0.1000E+02
    -13.659  0.0000E+00  0.1000E+02
    -13.546  0.0000E+00  0.1000E+02
    -13.432  0.0000E+00  0.1000E+02
    -13.318  0.0000E+00  0.1000E+02
    -13.204  0.0000E+00  0.1000E+02
    -13.090  0.0000E+00  0.1000E+02
    -12.976  0.0000E+00  0.1000E+02
    -12.862  0.0000E+00  0.1000E+02
    -12.748  0.0000E+00  0.1000E+02
    -12.634  0.0000E+00  0.1000E+02
    -12.520  0.0000E+00  0.1000E+02
    -12.406  0.0000E+00  0.1000E+02
    -12.292  0.0000E+00  0.1000E+02
    -12.178  0.0000E+00  0.1000E+02
    -12.064  0.0000E+00  0.1000E+02
    -11.951  0.0000E+00  0.1000E+02
    -11.837  0.0000E+00  0.1000E+02
    -11.723  0.0000E+00  0.1000E+02
    -11.609  0.0000E+00  0.1000E+02
    -11.495  0.0000E+00  0.1000E+02
    -11.381  0.0000E+00  0.1000E+02
    -11.267  0.0000E+00  0.1000E+02
    -11.153  0.0000E+00  0.1000E+02
    -11.039  0.0000E+00  0.1000E+02
    -10.925  0.0000E+00  0.1000E+02
    -10.811 -0.1245E-29  0.1000E+02
    -10.697 -0.9437E-26  0.1000E+02
    -10.583 -0.3718E-22  0.1000E+02
    -10.470 -0.7608E-19  0.1000E+02
    -10.356 -0.7682E-16  0.1000E+02
    -10.242 -0.4298E-13  0.1000E+02
    -10.128 -0.1217E-10  0.1000E+02
    -10.014 -0.1780E-08  0.1000E+02
     -9.900 -0.1347E-06  0.1000E+02
     -9.786 -0.5278E-05  0.1000E+02
     -9.672 -0.1078E-03  0.1000E+02
     -9.558 -0.1152E-02  0.1000E+02
     -9.444 -0.6325E-02  0.9999E+01
     -9.330 -0.1469E-01  0.9997E+01
     -9.216  0.1494E-01  0.9999E+01
     -9.102  0.1795E+00  0.1002E+02
     -8.988  0.4685E+00  0.1007E+02
     -8.875  0.6415E+00  0.1015E+02
     -8.761  0.7128E+00  0.1023E+02
     -8.647  0.1090E+01  0.1035E+02
     -8.533  0.1442E+01  0.1052E+02
     -8.419  0.1223E+01  0.1066E+02
     -8.305  0.1270E+01  0.1080E+02
     -8.191  0.2039E+01  0.1103E+02
     -8.077  0.2654E+01  0.1133E+02
     -7.963  0.2845E+01  0.1166E+02
     -7.849  0.3223E+01  0.1203E+02
     -7.735  0.3886E+01  0.1247E+02
     -7.621  0.4368E+01  0.1297E+02
     -7.507  0.4282E+01  0.1345E+02
     -7.393  0.3174E+01  0.1382E+02
     -7.280  0.1489E+01  0.1399E+02
     -7.166  0.2852E+00  0.1402E+02
     -7.052 -0.8636E-01  0.1401E+02
     -6.938 -0.5756E-01  0.1400E+02
     -6.824 -0.1140E-01  0.1400E+02
     -6.710 -0.1022E-02  0.1400E+02
     -6.596 -0.4483E-04  0.1400E+02
     -6.482 -0.9902E-06  0.1400E+02
     -6.368 -0.1115E-07  0.1400E+02
     -6.254 -0.6450E-10  0.1400E+02
     -6.140 -0.1923E-12  0.1400E+02
     -6.026 -0.3182E-15  0.1400E+02
     -5.912  0.0000E+00  0.1400E+02
     -5.799  0.0000E+00  0.1400E+02
     -5.685  0.0000E+00  0.1400E+02
     -5.571  0.0000E+00  0.1400E+02
     -5.457  0.0000E+00  0.1400E+02
     -5.343  0.0000E+00  0.1400E+02
     -5.229 -0.7844E-32  0.1400E+02
     -5.115 -0.1740E-27  0.1400E+02
     -5.001 -0.1046E-23  0.1400E+02
     -4.887 -0.3293E-20  0.1400E+02
     -4.773 -0.5432E-17  0.1400E+02
     -4.659 -0.4566E-14  0.1400E+02
     -4.545 -0.2052E-11  0.1400E+02
     -4.431 -0.4830E-09  0.1400E+02
     -4.317 -0.5934E-07  0.1400E+02
     -4.204 -0.3789E-05  0.1400E+02
     -4.090 -0.1250E-03  0.1400E+02
     -3.976 -0.2104E-02  0.1400E+02
     -3.862 -0.1771E-01  0.1400E+02
     -3.748 -0.7018E-01  0.1399E+02
     -3.634 -0.8227E-01  0.1398E+02
     -3.520  0.3923E+00  0.1403E+02
     -3.406  0.2092E+01  0.1426E+02
     -3.292  0.4432E+01  0.1477E+02
     -3.178  0.4887E+01  0.1533E+02
     -3.064  0.3402E+01  0.1571E+02
     -2.950  0.2547E+01  0.1600E+02
     -2.836  0.2550E+01  0.1629E+02
     -2.722  0.1789E+01  0.1650E+02
     -2.609  0.8458E+00  0.1659E+02
     -2.495  0.8928E+00  0.1670E+02
     -2.381  0.1159E+01  0.1683E+02
     -2.267  0.1346E+01  0.1698E+02
     -2.153  0.1519E+01  0.1715E+02
     -2.039  0.1117E+01  0.1728E+02
     -1.925  0.4170E+00  0.1733E+02
     -1.811  0.5080E-01  0.1733E+02
     -1.697  0.9061E-01  0.1734E+02
     -1.583  0.5145E+00  0.1740E+02
     -1.469  0.8674E+00  0.1750E+02
     -1.355  0.7492E+00  0.1759E+02
     -1.241  0.5994E+00  0.1766E+02
     -1.127  0.5503E+00  0.1772E+02
     -1.014  0.3198E+00  0.1775E+02
     -0.900  0.7461E-01  0.1776E+02
     -0.786  0.1027E-01  0.1776E+02
     -0.672  0.1001E+00  0.1778E+02
     -0.558  0.3338E+00  0.1781E+02
     -0.444  0.1054E+01  0.1793E+02
     -0.330  0.2305E+01  0.1820E+02
     -0.216  0.3085E+01  0.1855E+02
     -0.102  0.2731E+01  0.1886E+02
      0.012  0.2302E+01  0.1912E+02
      0.126  0.2574E+01  0.1941E+02
      0.240  0.2756E+01  0.1973E+02
      0.354  0.2847E+01  0.2005E+02
      0.467  0.3024E+01  0.2040E+02
      0.581  0.3316E+01  0.2078E+02
      0.695  0.3782E+01  0.2121E+02
      0.809  0.3758E+01  0.2163E+02
      0.923  0.3470E+01  0.2203E+02
      1.037  0.3587E+01  0.2244E+02
      1.151  0.3838E+01  0.2288E+02
      1.265  0.3161E+01  0.2324E+02
      1.379  0.1827E+01  0.2344E+02
      1.493  0.1155E+01  0.2358E+02
      1.607  0.1449E+01  0.2374E+02
      1.721  0.2340E+01  0.2401E+02
      1.835  0.3216E+01  0.2437E+02
      1.949  0.3142E+01  0.2473E+02
      2.062  0.1917E+01  0.2495E+02
      2.176  0.1037E+01  0.2507E+02
      2.290  0.1068E+01  0.2519E+02
      2.404  0.1114E+01  0.2532E+02
      2.518  0.1126E+01  0.2544E+02
      2.632  0.1445E+01  0.2561E+02
      2.746  0.1562E+01  0.2579E+02
      2.860  0.1051E+01  0.2591E+02
      2.974  0.4738E+00  0.2596E+02
      3.088  0.3690E+00  0.2600E+02
      3.202  0.4076E+00  0.2605E+02
      3.316  0.1707E+00  0.2607E+02
      3.430  0.4188E-01  0.2607E+02
      3.544  0.4344E+00  0.2612E+02
      3.657  0.8816E+00  0.2622E+02
      3.771  0.7195E+00  0.2631E+02
      3.885  0.4849E+00  0.2636E+02
      3.999  0.7255E+00  0.2644E+02
      4.113  0.1092E+01  0.2657E+02
      4.227  0.1365E+01  0.2672E+02
      4.341  0.1775E+01  0.2693E+02
      4.455  0.2407E+01  0.2720E+02
      4.569  0.3222E+01  0.2757E+02
      4.683  0.3361E+01  0.2795E+02
      4.797  0.2821E+01  0.2827E+02
      4.911  0.2488E+01  0.2855E+02
      5.025  0.2289E+01  0.2882E+02
      5.138  0.2470E+01  0.2910E+02
      5.252  0.2909E+01  0.2943E+02
      5.366  0.3137E+01  0.2979E+02
      5.480  0.2516E+01  0.3007E+02
      5.594  0.1372E+01  0.3023E+02
      5.708  0.1165E+01  0.3036E+02
      5.822  0.1756E+01  0.3056E+02
      5.936  0.2113E+01  0.3080E+02
      6.050  0.2099E+01  0.3104E+02
      6.164  0.1697E+01  0.3123E+02
      6.278  0.1156E+01  0.3137E+02
      6.392  0.1192E+01  0.3150E+02
      6.506  0.1451E+01  0.3167E+02
      6.620  0.2065E+01  0.3190E+02
      6.733  0.3520E+01  0.3230E+02
      6.847  0.4672E+01  0.3284E+02
      6.961  0.4233E+01  0.3332E+02
      7.075  0.2924E+01  0.3365E+02
      7.189  0.2365E+01  0.3392E+02
      7.303  0.2571E+01  0.3421E+02
      7.417  0.3043E+01  0.3456E+02
      7.531  0.3521E+01  0.3496E+02
      7.645  0.3096E+01  0.3531E+02
      7.759  0.1987E+01  0.3554E+02
      7.873  0.2195E+01  0.3579E+02
      7.987  0.3556E+01  0.3620E+02
      8.101  0.4048E+01  0.3666E+02
      8.215  0.3421E+01  0.3705E+02
      8.328  0.2865E+01  0.3737E+02
      8.442  0.3101E+01  0.3773E+02
      8.556  0.3460E+01  0.3812E+02
      8.670  0.2487E+01  0.3840E+02
      8.784  0.1325E+01  0.3856E+02
      8.898  0.1349E+01  0.3871E+02
      9.012  0.1461E+01  0.3888E+02
      9.126  0.1042E+01  0.3899E+02
      9.240  0.7566E+00  0.3908E+02
      9.354  0.1079E+01  0.3920E+02
      9.468  0.1409E+01  0.3936E+02
      9.582  0.1332E+01  0.3952E+02
      9.696  0.1056E+01  0.3964E+02
      9.809  0.5604E+00  0.3970E+02
      9.923  0.2868E+00  0.3973E+02
     10.037  0.4304E+00  0.3978E+02
     10.151  0.4044E+00  0.3983E+02
     10.265  0.3243E+00  0.3986E+02
     10.379  0.4573E+00  0.3992E+02
     10.493  0.3718E+00  0.3996E+02
     10.607  0.9713E-01  0.3997E+02
     10.721 -0.4979E-02  0.3997E+02
     10.835  0.6919E-01  0.3998E+02
     10.949  0.1293E+00  0.3999E+02
     11.063  0.7300E-01  0.4000E+02
     11.177  0.5927E-02  0.4000E+02
     11.291 -0.6368E-02  0.4000E+02
     11.404 -0.1896E-02  0.4000E+02
     11.518 -0.2047E-03  0.4000E+02
     11.632 -0.1012E-04  0.4000E+02
     11.746 -0.2444E-06  0.4000E+02
     11.860 -0.2962E-08  0.4000E+02
     11.974 -0.1827E-10  0.4000E+02
     12.088 -0.5779E-13  0.4000E+02
     12.202 -0.1273E-15  0.4000E+02
     12.316  0.0000E+00  0.4000E+02
     12.430  0.0000E+00  0.4000E+02
     12.544  0.0000E+00  0.4000E+02
     12.658  0.0000E+00  0.4000E+02
     12.772  0.0000E+00  0.4000E+02
     12.886  0.0000E+00  0.4000E+02
