    4    4    1    1
  0.2841110E+02  0.4300141E-09  0.4300141E-09  0.6145861E-09  0.5000000E-15
  1.000000000000000E-004
  CAR 
 Ga2BiAs                                 
     26     30     20
 
  0.0000000E+00  0.0000000E+00  0.0000000E+00  0.4081633E-02
    1      -19.292548   1.000000
    2      -19.281188   1.000000
    3      -19.281188   1.000000
    4      -19.262219   1.000000
    5      -19.245578   1.000000
    6       -9.173483   1.000000
    7       -7.434972   1.000000
    8       -3.529882   1.000000
    9        0.461260   1.000000
   10        0.461261   1.000000
   11        1.843473   1.000000
   12        2.926225   0.981959
   13        3.178404   0.134923
   14        3.178405   0.134922
   15        4.122339  -0.000000
   16        4.390674  -0.000000
   17        6.188579  -0.000000
   18        6.188579  -0.000000
   19        6.355974  -0.000000
   20        8.894614   0.000000
 
  0.1428571E+00  0.0000000E+00  0.0000000E+00  0.1632653E-01
    1      -19.290309   1.000000
    2      -19.282352   1.000000
    3      -19.281061   1.000000
    4      -19.261336   1.000000
    5      -19.246472   1.000000
    6       -9.055365   1.000000
    7       -7.430184   1.000000
    8       -3.479832   1.000000
    9       -0.150457   1.000000
   10        0.569482   1.000000
   11        0.886478   1.000000
   12        2.473851   1.000078
   13        3.114633   0.356739
   14        3.622600  -0.000427
   15        4.473717  -0.000000
   16        5.304282  -0.000000
   17        6.186658  -0.000000
   18        6.320262  -0.000000
   19        7.044244  -0.000000
   20        9.680584   0.000000
 
  0.2857143E+00  0.0000000E+00  0.0000000E+00  0.1632653E-01
    1      -19.289636   1.000000
    2      -19.281372   1.000000
    3      -19.280732   1.000000
    4      -19.258561   1.000000
    5      -19.248440   1.000000
    6       -8.721435   1.000000
    7       -7.492396   1.000000
    8       -3.334983   1.000000
    9       -1.049836   1.000000
   10       -0.284269   1.000000
   11        0.860166   1.000000
   12        1.449369   1.000000
   13        2.903504   1.008447
   14        4.068991  -0.000000
   15        4.989854  -0.000000
   16        6.500631  -0.000000
   17        6.727389  -0.000000
   18        7.128130  -0.000000
   19        8.179900  -0.000000
   20        9.337425   0.000000
 
  0.4285714E+00  0.0000000E+00  0.0000000E+00  0.1632653E-01
    1      -19.292130   1.000000
    2      -19.280476   1.000000
    3      -19.278521   1.000000
    4      -19.255369   1.000000
    5      -19.250031   1.000000
    6       -8.247606   1.000000
    7       -7.764193   1.000000
    8       -2.986402   1.000000
    9       -2.116093   1.000000
   10       -0.304732   1.000000
   11        0.408793   1.000000
   12        1.184774   1.000000
   13        2.620555   1.002718
   14        4.373736  -0.000000
   15        5.405965  -0.000000
   16        7.155865  -0.000000
   17        7.427383  -0.000000
   18        7.551167  -0.000000
   19        8.394827  -0.000000
   20        8.431147  -0.000000
 
  0.1428571E+00  0.1428571E+00  0.0000000E+00  0.1632653E-01
    1      -19.288597   1.000000
    2      -19.283239   1.000000
    3      -19.280424   1.000000
    4      -19.260661   1.000000
    5      -19.247374   1.000000
    6       -8.938375   1.000000
    7       -7.415650   1.000000
    8       -3.445803   1.000000
    9       -0.245883   1.000000
   10       -0.001656   1.000000
   11        0.644511   1.000000
   12        2.219976   1.000000
   13        2.395729   1.000007
   14        4.373681  -0.000000
   15        5.279742  -0.000000
   16        5.363590  -0.000000
   17        5.812614  -0.000000
   18        7.211004  -0.000000
   19        7.503561  -0.000000
   20        9.423027   0.000000
 
  0.2857143E+00  0.1428571E+00  0.0000000E+00  0.3265306E-01
    1      -19.289184   1.000000
    2      -19.283954   1.000000
    3      -19.276638   1.000000
    4      -19.258344   1.000000
    5      -19.249385   1.000000
    6       -8.608860   1.000000
    7       -7.448918   1.000000
    8       -3.348900   1.000000
    9       -1.228325   1.000000
   10       -0.294141   1.000000
   11        0.448560   1.000000
   12        1.438327   1.000000
   13        2.066079   1.000000
   14        4.787072  -0.000000
   15        5.345029  -0.000000
   16        5.873231  -0.000000
   17        7.305019  -0.000000
   18        7.924379  -0.000000
   19        8.046756  -0.000000
   20        8.457376  -0.000000
 
  0.4285714E+00  0.1428571E+00  0.0000000E+00  0.3265306E-01
    1      -19.291943   1.000000
    2      -19.283504   1.000000
    3      -19.273486   1.000000
    4      -19.255351   1.000000
    5      -19.251001   1.000000
    6       -8.146930   1.000000
    7       -7.683639   1.000000
    8       -3.057955   1.000000
    9       -2.270854   1.000000
   10       -0.201904   1.000000
   11        0.483757   1.000000
   12        0.734961   1.000000
   13        1.866632   1.000000
   14        5.107299  -0.000000
   15        5.818881  -0.000000
   16        5.992564  -0.000000
   17        6.841774  -0.000000
   18        7.605394  -0.000000
   19        7.854993  -0.000000
   20        8.883573   0.000000
 
  0.2857143E+00  0.2857143E+00  0.0000000E+00  0.1632653E-01
    1      -19.288935   1.000000
    2      -19.287666   1.000000
    3      -19.269264   1.000000
    4      -19.257371   1.000000
    5      -19.251492   1.000000
    6       -8.296447   1.000000
    7       -7.390511   1.000000
    8       -3.397854   1.000000
    9       -1.916371   1.000000
   10       -0.209963   1.000000
   11        0.163655   1.000000
   12        1.229404   1.000000
   13        1.352930   1.000000
   14        4.379646  -0.000000
   15        5.197762  -0.000000
   16        6.432910  -0.000000
   17        6.793095  -0.000000
   18        7.919677  -0.000000
   19        8.197746  -0.000000
   20        9.147553   0.000000
 
  0.4285714E+00  0.2857143E+00  0.0000000E+00  0.3265306E-01
    1      -19.291534   1.000000
    2      -19.287885   1.000000
    3      -19.264602   1.000000
    4      -19.255264   1.000000
    5      -19.253185   1.000000
    6       -7.881240   1.000000
    7       -7.493675   1.000000
    8       -3.297980   1.000000
    9       -2.751677   1.000000
   10        0.037318   1.000000
   11        0.354886   1.000000
   12        0.668028   1.000000
   13        1.078094   1.000000
   14        4.527419  -0.000000
   15        4.915097  -0.000000
   16        5.480333  -0.000000
   17        5.838390  -0.000000
   18        8.231213  -0.000000
   19        9.706771   0.000000
   20       10.036379   0.000000
 
  0.4285714E+00  0.4285714E+00  0.0000000E+00  0.1632653E-01
    1      -19.291276   1.000000
    2      -19.291135   1.000000
    3      -19.258023   1.000000
    4      -19.254936   1.000000
    5      -19.254861   1.000000
    6       -7.590793   1.000000
    7       -7.354201   1.000000
    8       -3.511489   1.000000
    9       -3.307938   1.000000
   10        0.245612   1.000000
   11        0.479720   1.000000
   12        0.662394   1.000000
   13        0.873442   1.000000
   14        4.020179  -0.000000
   15        4.282093  -0.000000
   16        4.578711  -0.000000
   17        4.959135  -0.000000
   18       10.339139   0.000000
   19       10.425545   0.000000
   20       10.885516   0.000000
 
  0.0000000E+00  0.0000000E+00  0.2000000E+00  0.8163265E-02
    1      -19.292551   1.000000
    2      -19.281215   1.000000
    3      -19.281215   1.000000
    4      -19.262147   1.000000
    5      -19.245596   1.000000
    6       -9.059405   1.000000
    7       -7.696145   1.000000
    8       -3.096283   1.000000
    9        0.572654   1.000000
   10        0.572654   1.000000
   11        0.730158   1.000000
   12        2.795107   1.030801
   13        2.795107   1.030801
   14        3.765117  -0.000007
   15        4.346703  -0.000000
   16        4.643195  -0.000000
   17        5.989375  -0.000000
   18        6.770978  -0.000000
   19        6.770978  -0.000000
   20        9.628046   0.000000
 
  0.1428571E+00  0.0000000E+00  0.2000000E+00  0.3265306E-01
    1      -19.290319   1.000000
    2      -19.282384   1.000000
    3      -19.281076   1.000000
    4      -19.261254   1.000000
    5      -19.246470   1.000000
    6       -8.945463   1.000000
    7       -7.663618   1.000000
    8       -3.123632   1.000000
    9       -0.258958   1.000000
   10        0.440612   1.000000
   11        0.672257   1.000000
   12        2.669306   1.006676
   13        2.795620   1.030902
   14        3.617255  -0.000487
   15        4.587632  -0.000000
   16        5.347635  -0.000000
   17        6.689551  -0.000000
   18        6.789653  -0.000000
   19        6.993431  -0.000000
   20        9.490459   0.000000
 
  0.2857143E+00  0.0000000E+00  0.2000000E+00  0.3265306E-01
    1      -19.289676   1.000000
    2      -19.281378   1.000000
    3      -19.280760   1.000000
    4      -19.258492   1.000000
    5      -19.248445   1.000000
    6       -8.627537   1.000000
    7       -7.639231   1.000000
    8       -3.216372   1.000000
    9       -1.414567   1.000000
   10       -0.072016   1.000000
   11        0.933513   1.000000
   12        2.009785   1.000000
   13        2.748807   1.020454
   14        3.577589  -0.001228
   15        4.816999  -0.000000
   16        6.893047  -0.000000
   17        6.957029  -0.000000
   18        7.130682  -0.000000
   19        8.043064  -0.000000
   20        8.906020   0.000000
 
  0.4285714E+00  0.0000000E+00  0.2000000E+00  0.3265306E-01
    1      -19.292188   1.000000
    2      -19.280493   1.000000
    3      -19.278511   1.000000
    4      -19.255308   1.000000
    5      -19.250025   1.000000
    6       -8.194937   1.000000
    7       -7.791569   1.000000
    8       -3.153738   1.000000
    9       -2.434593   1.000000
   10        0.175805   1.000000
   11        0.973648   1.000000
   12        1.207558   1.000000
   13        2.628750   1.003194
   14        3.987919  -0.000000
   15        4.895192  -0.000000
   16        6.939145  -0.000000
   17        7.192126  -0.000000
   18        7.247668  -0.000000
   19        7.992820  -0.000000
   20        9.012059   0.000000
 
  0.1428571E+00  0.1428571E+00  0.2000000E+00  0.3265306E-01
    1      -19.288608   1.000000
    2      -19.283269   1.000000
    3      -19.280439   1.000000
    4      -19.260577   1.000000
    5      -19.247366   1.000000
    6       -8.832629   1.000000
    7       -7.625789   1.000000
    8       -3.144013   1.000000
    9       -0.602142   1.000000
   10        0.103318   1.000000
   11        0.617581   1.000000
   12        1.982410   1.000000
   13        2.624009   1.002911
   14        4.215395  -0.000000
   15        5.356594  -0.000000
   16        5.722106  -0.000000
   17        6.089794  -0.000000
   18        7.211691  -0.000000
   19        7.520365  -0.000000
   20        8.527680  -0.000000
 
  0.2857143E+00  0.1428571E+00  0.2000000E+00  0.6530612E-01
    1      -19.289225   1.000000
    2      -19.283977   1.000000
    3      -19.276643   1.000000
    4      -19.258272   1.000000
    5      -19.249378   1.000000
    6       -8.518894   1.000000
    7       -7.584069   1.000000
    8       -3.226198   1.000000
    9       -1.567956   1.000000
   10       -0.196647   1.000000
   11        0.654748   1.000000
   12        1.749060   1.000000
   13        1.873525   1.000000
   14        4.515529  -0.000000
   15        5.617912  -0.000000
   16        6.099619  -0.000000
   17        6.862177  -0.000000
   18        7.545353  -0.000000
   19        8.001248  -0.000000
   20        8.532919  -0.000000
 
  0.4285714E+00  0.1428571E+00  0.2000000E+00  0.6530612E-01
    1      -19.291999   1.000000
    2      -19.283518   1.000000
    3      -19.273479   1.000000
    4      -19.255289   1.000000
    5      -19.250999   1.000000
    6       -8.097504   1.000000
    7       -7.709422   1.000000
    8       -3.171631   1.000000
    9       -2.515216   1.000000
   10        0.026742   1.000000
   11        0.674547   1.000000
   12        1.067613   1.000000
   13        1.862343   1.000000
   14        4.625681  -0.000000
   15        5.192285  -0.000000
   16        6.391925  -0.000000
   17        6.913462  -0.000000
   18        8.088701  -0.000000
   19        8.337353  -0.000000
   20        8.495738  -0.000000
 
  0.2857143E+00  0.2857143E+00  0.2000000E+00  0.3265306E-01
    1      -19.288968   1.000000
    2      -19.287701   1.000000
    3      -19.269264   1.000000
    4      -19.257298   1.000000
    5      -19.251486   1.000000
    6       -8.221309   1.000000
    7       -7.483883   1.000000
    8       -3.300570   1.000000
    9       -2.127740   1.000000
   10       -0.431882   1.000000
   11        0.580245   1.000000
   12        1.076301   1.000000
   13        1.390120   1.000000
   14        5.022207  -0.000000
   15        5.186207  -0.000000
   16        5.764353  -0.000000
   17        7.578722  -0.000000
   18        7.940451  -0.000000
   19        8.181149  -0.000000
   20        8.686121   0.000000
 
  0.4285714E+00  0.2857143E+00  0.2000000E+00  0.6530612E-01
    1      -19.291574   1.000000
    2      -19.287918   1.000000
    3      -19.264601   1.000000
    4      -19.255208   1.000000
    5      -19.253176   1.000000
    6       -7.843502   1.000000
    7       -7.511993   1.000000
    8       -3.298580   1.000000
    9       -2.846182   1.000000
   10       -0.262583   1.000000
   11        0.360200   1.000000
   12        0.880231   1.000000
   13        1.173038   1.000000
   14        4.543587  -0.000000
   15        4.749355  -0.000000
   16        5.994485  -0.000000
   17        6.856319  -0.000000
   18        8.214331  -0.000000
   19        8.873289   0.000000
   20        9.610475   0.000000
 
  0.4285714E+00  0.4285714E+00  0.2000000E+00  0.3265306E-01
    1      -19.291315   1.000000
    2      -19.291164   1.000000
    3      -19.258024   1.000000
    4      -19.254922   1.000000
    5      -19.254804   1.000000
    6       -7.577125   1.000000
    7       -7.351863   1.000000
    8       -3.466182   1.000000
    9       -3.301082   1.000000
   10       -0.113559   1.000000
   11        0.322578   1.000000
   12        0.519758   1.000000
   13        0.815533   1.000000
   14        4.355292  -0.000000
   15        4.805315  -0.000000
   16        5.116221  -0.000000
   17        5.786698  -0.000000
   18        9.386707   0.000000
   19        9.999833   0.000000
   20       10.328818   0.000000
 
  0.0000000E+00  0.0000000E+00  0.4000000E+00  0.8163265E-02
    1      -19.292563   1.000000
    2      -19.281275   1.000000
    3      -19.281274   1.000000
    4      -19.262028   1.000000
    5      -19.245606   1.000000
    6       -8.731476   1.000000
    7       -8.225576   1.000000
    8       -2.053985   1.000000
    9       -0.722803   1.000000
   10        0.821263   1.000000
   11        0.821263   1.000000
   12        2.217996   1.000000
   13        2.217996   1.000000
   14        4.048434  -0.000000
   15        4.773072  -0.000000
   16        5.313879  -0.000000
   17        5.803635  -0.000000
   18        7.994762  -0.000000
   19        7.994762  -0.000000
   20        9.321967   0.000000
 
  0.1428571E+00  0.0000000E+00  0.4000000E+00  0.3265306E-01
    1      -19.290331   1.000000
    2      -19.282424   1.000000
    3      -19.281121   1.000000
    4      -19.261134   1.000000
    5      -19.246472   1.000000
    6       -8.631789   1.000000
    7       -8.151084   1.000000
    8       -2.274668   1.000000
    9       -1.201511   1.000000
   10        0.720121   1.000000
   11        0.895666   1.000000
   12        1.899640   1.000000
   13        2.295726   1.000000
   14        4.286337  -0.000000
   15        5.147039  -0.000000
   16        5.417304  -0.000000
   17        6.343785  -0.000000
   18        7.788789  -0.000000
   19        7.822311  -0.000000
   20        8.459594  -0.000000
 
  0.2857143E+00  0.0000000E+00  0.4000000E+00  0.3265306E-01
    1      -19.289746   1.000000
    2      -19.281385   1.000000
    3      -19.280793   1.000000
    4      -19.258388   1.000000
    5      -19.248439   1.000000
    6       -8.368197   1.000000
    7       -7.980713   1.000000
    8       -2.865686   1.000000
    9       -2.130199   1.000000
   10        0.753457   1.000000
   11        1.078623   1.000000
   12        1.911116   1.000000
   13        2.481274   1.000096
   14        3.646678  -0.000231
   15        4.642362  -0.000000
   16        6.618503  -0.000000
   17        6.842335  -0.000000
   18        7.335089  -0.000000
   19        8.193898  -0.000000
   20        8.270791  -0.000000
 
  0.4285714E+00  0.0000000E+00  0.4000000E+00  0.3265306E-01
    1      -19.292287   1.000000
    2      -19.280522   1.000000
    3      -19.278499   1.000000
    4      -19.255210   1.000000
    5      -19.250022   1.000000
    6       -8.072092   1.000000
    7       -7.873803   1.000000
    8       -3.333300   1.000000
    9       -2.860718   1.000000
   10        1.236568   1.000000
   11        1.245820   1.000000
   12        1.906839   1.000000
   13        2.640906   1.004027
   14        3.121846   0.328016
   15        3.876541  -0.000000
   16        6.710746  -0.000000
   17        7.064439  -0.000000
   18        7.329496  -0.000000
   19        7.473457  -0.000000
   20        9.467407   0.000000
 
  0.1428571E+00  0.1428571E+00  0.4000000E+00  0.3265306E-01
    1      -19.288634   1.000000
    2      -19.283319   1.000000
    3      -19.280468   1.000000
    4      -19.260463   1.000000
    5      -19.247363   1.000000
    6       -8.532955   1.000000
    7       -8.075529   1.000000
    8       -2.410719   1.000000
    9       -1.483374   1.000000
   10        0.282688   1.000000
   11        0.938249   1.000000
   12        1.582385   1.000000
   13        2.416218   1.000014
   14        4.575259  -0.000000
   15        5.389053  -0.000000
   16        5.928840  -0.000000
   17        6.530257  -0.000000
   18        7.492639  -0.000000
   19        7.571245  -0.000000
   20        8.242153  -0.000000
 
  0.2857143E+00  0.1428571E+00  0.4000000E+00  0.6530612E-01
    1      -19.289292   1.000000
    2      -19.284012   1.000000
    3      -19.276653   1.000000
    4      -19.258171   1.000000
    5      -19.249373   1.000000
    6       -8.272506   1.000000
    7       -7.901076   1.000000
    8       -2.872591   1.000000
    9       -2.213571   1.000000
   10        0.096541   1.000000
   11        0.837547   1.000000
   12        1.636272   1.000000
   13        2.239990   1.000000
   14        4.342762  -0.000000
   15        5.073064  -0.000000
   16        6.636839  -0.000000
   17        7.074465  -0.000000
   18        7.377447  -0.000000
   19        7.984754  -0.000000
   20        8.549133   0.000000
 
  0.4285714E+00  0.1428571E+00  0.4000000E+00  0.6530612E-01
    1      -19.292087   1.000000
    2      -19.283555   1.000000
    3      -19.273474   1.000000
    4      -19.255202   1.000000
    5      -19.250996   1.000000
    6       -7.984437   1.000000
    7       -7.784466   1.000000
    8       -3.297265   1.000000
    9       -2.872091   1.000000
   10        0.313857   1.000000
   11        1.052188   1.000000
   12        1.670960   1.000000
   13        1.800456   1.000000
   14        4.121001  -0.000000
   15        4.598293  -0.000000
   16        6.726348  -0.000000
   17        6.841264  -0.000000
   18        7.568244  -0.000000
   19        8.066738  -0.000000
   20        9.324927   0.000000
 
  0.2857143E+00  0.2857143E+00  0.4000000E+00  0.3265306E-01
    1      -19.289041   1.000000
    2      -19.287758   1.000000
    3      -19.269278   1.000000
    4      -19.257200   1.000000
    5      -19.251477   1.000000
    6       -8.023826   1.000000
    7       -7.711121   1.000000
    8       -3.016091   1.000000
    9       -2.574527   1.000000
   10       -0.409519   1.000000
   11        0.186824   1.000000
   12        1.479413   1.000000
   13        1.706230   1.000000
   14        4.832555  -0.000000
   15        5.210697  -0.000000
   16        6.772226  -0.000000
   17        7.594527  -0.000000
   18        7.785912  -0.000000
   19        8.426232  -0.000000
   20        8.640683   0.000000
 
  0.4285714E+00  0.2857143E+00  0.4000000E+00  0.6530612E-01
    1      -19.291644   1.000000
    2      -19.287966   1.000000
    3      -19.264600   1.000000
    4      -19.255122   1.000000
    5      -19.253162   1.000000
    6       -7.763870   1.000000
    7       -7.560122   1.000000
    8       -3.276116   1.000000
    9       -3.024011   1.000000
   10       -0.388804   1.000000
   11        0.131112   1.000000
   12        1.093843   1.000000
   13        1.222375   1.000000
   14        4.893037  -0.000000
   15        5.350215  -0.000000
   16        6.671529  -0.000000
   17        7.392084  -0.000000
   18        7.920874  -0.000000
   19        8.555994   0.000000
   20        9.068559   0.000000
 
  0.4285714E+00  0.4285714E+00  0.4000000E+00  0.3265306E-01
    1      -19.291359   1.000000
    2      -19.291222   1.000000
    3      -19.258028   1.000000
    4      -19.254898   1.000000
    5      -19.254712   1.000000
    6       -7.554043   1.000000
    7       -7.348788   1.000000
    8       -3.372187   1.000000
    9       -3.307687   1.000000
   10       -0.373311   1.000000
   11       -0.138140   1.000000
   12        0.430177   1.000000
   13        0.579199   1.000000
   14        5.437634  -0.000000
   15        6.117793  -0.000000
   16        6.426798  -0.000000
   17        7.242786  -0.000000
   18        7.697343  -0.000000
   19        8.368110  -0.000000
   20        8.822345   0.000000
