Automatically generated mesh
      30
Reciprocal lattice
    0.00000000000000    0.00000000000000    0.00000000000000             1
    0.14285714285714    0.00000000000000    0.00000000000000             4
    0.28571428571429    0.00000000000000    0.00000000000000             4
    0.42857142857143    0.00000000000000    0.00000000000000             4
    0.14285714285714    0.14285714285714    0.00000000000000             4
    0.28571428571429    0.14285714285714    0.00000000000000             8
    0.42857142857143    0.14285714285714    0.00000000000000             8
    0.28571428571429    0.28571428571429    0.00000000000000             4
    0.42857142857143    0.28571428571429    0.00000000000000             8
    0.42857142857143    0.42857142857143    0.00000000000000             4
    0.00000000000000    0.00000000000000    0.20000000000000             2
    0.14285714285714    0.00000000000000    0.20000000000000             8
    0.28571428571429    0.00000000000000    0.20000000000000             8
    0.42857142857143    0.00000000000000    0.20000000000000             8
    0.14285714285714    0.14285714285714    0.20000000000000             8
    0.28571428571429    0.14285714285714    0.20000000000000            16
    0.42857142857143    0.14285714285714    0.20000000000000            16
    0.28571428571429    0.28571428571429    0.20000000000000             8
    0.42857142857143    0.28571428571429    0.20000000000000            16
    0.42857142857143    0.42857142857143    0.20000000000000             8
    0.00000000000000    0.00000000000000    0.40000000000000             2
    0.14285714285714    0.00000000000000    0.40000000000000             8
    0.28571428571429    0.00000000000000    0.40000000000000             8
    0.42857142857143    0.00000000000000    0.40000000000000             8
    0.14285714285714    0.14285714285714    0.40000000000000             8
    0.28571428571429    0.14285714285714    0.40000000000000            16
    0.42857142857143    0.14285714285714    0.40000000000000            16
    0.28571428571429    0.28571428571429    0.40000000000000             8
    0.42857142857143    0.28571428571429    0.40000000000000            16
    0.42857142857143    0.42857142857143    0.40000000000000             8
