 running on   32 total cores
 distrk:  each k-point on   32 cores,    1 groups
 distr:  one band on    8 cores,    4 groups
 using from now: INCAR     
 vasp.5.4.4.18Apr17-6-g9f103f2a35 (build Dec 22 2021 20:15:33) complex          
  
 POSCAR found type information on POSCAR  Ga Bi As
 POSCAR found :  3 types and       4 ions
 scaLAPACK will be used
 LDA part: xc-table for Pade appr. of Perdew
 POSCAR, INCAR and KPOINTS ok, starting setup
 FFT: planning ...
 WAVECAR not read
 WARNING: random wavefunctions but no delay for mixing, default for NELMDL
 entering main loop
       N       E                     dE             d eps       ncg     rms          rms(c)
DAV:   1     0.177436406957E+03    0.17744E+03   -0.11335E+04  1200   0.114E+03
DAV:   2    -0.159479892308E+00   -0.17760E+03   -0.17189E+03  1328   0.280E+02
DAV:   3    -0.146500292710E+02   -0.14491E+02   -0.14310E+02  1564   0.896E+01
DAV:   4    -0.150205274258E+02   -0.37050E+00   -0.36981E+00  1416   0.161E+01
DAV:   5    -0.150329628323E+02   -0.12435E-01   -0.12434E-01  1712   0.290E+00    0.415E+00
DAV:   6    -0.148812441471E+02    0.15172E+00   -0.20092E-01  1412   0.205E+00    0.244E+00
DAV:   7    -0.148483152767E+02    0.32929E-01   -0.15498E-01  1400   0.201E+00    0.544E-01
DAV:   8    -0.148480367586E+02    0.27852E-03   -0.14952E-02  1388   0.681E-01    0.146E-01
DAV:   9    -0.148489638978E+02   -0.92714E-03   -0.34794E-03  1360   0.281E-01    0.792E-02
DAV:  10    -0.148490902878E+02   -0.12639E-03   -0.23482E-04  1720   0.808E-02    0.411E-02
DAV:  11    -0.148491998137E+02   -0.10953E-03   -0.17402E-04  1316   0.713E-02    0.107E-02
DAV:  12    -0.148492010157E+02   -0.12020E-05   -0.78318E-06  1540   0.177E-02    0.465E-03
DAV:  13    -0.148492027881E+02   -0.17724E-05   -0.71166E-06  1324   0.150E-02    0.282E-03
DAV:  14    -0.148492028345E+02   -0.46392E-07   -0.62319E-07   888   0.377E-03
   1 F= -.14849203E+02 E0= -.14849177E+02  d E =-.786533E-04
 writing wavefunctions
