<?xml version="1.0" encoding="ISO-8859-1"?>
<modeling>
 <generator>
  <i name="program" type="string">vasp </i>
  <i name="version" type="string">5.4.4.18Apr17-6-g9f103f2a35  </i>
  <i name="subversion" type="string">(build Dec 22 2021 20:15:33) complex            parallel </i>
  <i name="platform" type="string">LinuxIFC </i>
  <i name="date" type="string">2019 05 17 </i>
  <i name="time" type="string">01:27:19 </i>
 </generator>
 <incar>
  <i type="string" name="SYSTEM"> Ga2BiAs</i>
  <i type="string" name="PREC">accurate</i>
  <i type="int" name="ICHARG">     2</i>
  <i name="EDIFF">      0.00000100</i>
  <i name="EDIFFG">     -0.01000000</i>
  <i name="ENCUT">    500.00000000</i>
  <i type="logical" name="LWAVE"> T  </i>
  <i type="logical" name="LCHARG"> T  </i>
  <v type="int" name="KPOINT_BSE">    -1     0     0     0</v>
 </incar>
 <structure name="primitive_cell" >
  <crystal>
   <varray name="basis" >
    <v>       4.30014086       0.00000000       0.00000000 </v>
    <v>       0.00000000       4.30014086       0.00000000 </v>
    <v>       0.00000000       0.00000000       6.14586115 </v>
   </varray>
   <i name="volume">    113.64441771 </i>
   <varray name="rec_basis" >
    <v>       0.23255052       0.00000000       0.00000000 </v>
    <v>       0.00000000       0.23255052       0.00000000 </v>
    <v>       0.00000000       0.00000000       0.16271113 </v>
   </varray>
  </crystal>
  <varray name="positions" >
   <v>      -0.50000000       0.00000000      -0.27426398 </v>
   <v>      -0.50000000      -0.50000000      -0.50000000 </v>
   <v>       0.00000000       0.00000000       0.00000000 </v>
   <v>       0.00000000      -0.50000000       0.27426400 </v>
  </varray>
 </structure>
 <varray name="primitive_index" >
  <v type="int" >        1 </v>
  <v type="int" >        4 </v>
  <v type="int" >        3 </v>
  <v type="int" >        2 </v>
 </varray>
 <kpoints>
  <generation param="Gamma">
   <v type="int" name="divisions">       7        7        5 </v>
   <v name="usershift">      0.00000000       0.00000000       0.00000000 </v>
   <v name="genvec1">      0.14285714       0.00000000       0.00000000 </v>
   <v name="genvec2">      0.00000000       0.14285714       0.00000000 </v>
   <v name="genvec3">      0.00000000       0.00000000       0.20000000 </v>
   <v name="shift">      0.00000000       0.00000000       0.00000000 </v>
  </generation>
  <varray name="kpointlist" >
   <v>       0.00000000       0.00000000       0.00000000 </v>
   <v>       0.14285714       0.00000000       0.00000000 </v>
   <v>       0.28571429       0.00000000       0.00000000 </v>
   <v>       0.42857143       0.00000000       0.00000000 </v>
   <v>       0.14285714       0.14285714       0.00000000 </v>
   <v>       0.28571429       0.14285714       0.00000000 </v>
   <v>       0.42857143       0.14285714       0.00000000 </v>
   <v>       0.28571429       0.28571429       0.00000000 </v>
   <v>       0.42857143       0.28571429       0.00000000 </v>
   <v>       0.42857143       0.42857143       0.00000000 </v>
   <v>       0.00000000       0.00000000       0.20000000 </v>
   <v>       0.14285714       0.00000000       0.20000000 </v>
   <v>       0.28571429       0.00000000       0.20000000 </v>
   <v>       0.42857143       0.00000000       0.20000000 </v>
   <v>       0.14285714       0.14285714       0.20000000 </v>
   <v>       0.28571429       0.14285714       0.20000000 </v>
   <v>       0.42857143       0.14285714       0.20000000 </v>
   <v>       0.28571429       0.28571429       0.20000000 </v>
   <v>       0.42857143       0.28571429       0.20000000 </v>
   <v>       0.42857143       0.42857143       0.20000000 </v>
   <v>       0.00000000       0.00000000       0.40000000 </v>
   <v>       0.14285714       0.00000000       0.40000000 </v>
   <v>       0.28571429       0.00000000       0.40000000 </v>
   <v>       0.42857143       0.00000000       0.40000000 </v>
   <v>       0.14285714       0.14285714       0.40000000 </v>
   <v>       0.28571429       0.14285714       0.40000000 </v>
   <v>       0.42857143       0.14285714       0.40000000 </v>
   <v>       0.28571429       0.28571429       0.40000000 </v>
   <v>       0.42857143       0.28571429       0.40000000 </v>
   <v>       0.42857143       0.42857143       0.40000000 </v>
  </varray>
  <varray name="weights" >
   <v>       0.00408163 </v>
   <v>       0.01632653 </v>
   <v>       0.01632653 </v>
   <v>       0.01632653 </v>
   <v>       0.01632653 </v>
   <v>       0.03265306 </v>
   <v>       0.03265306 </v>
   <v>       0.01632653 </v>
   <v>       0.03265306 </v>
   <v>       0.01632653 </v>
   <v>       0.00816327 </v>
   <v>       0.03265306 </v>
   <v>       0.03265306 </v>
   <v>       0.03265306 </v>
   <v>       0.03265306 </v>
   <v>       0.06530612 </v>
   <v>       0.06530612 </v>
   <v>       0.03265306 </v>
   <v>       0.06530612 </v>
   <v>       0.03265306 </v>
   <v>       0.00816327 </v>
   <v>       0.03265306 </v>
   <v>       0.03265306 </v>
   <v>       0.03265306 </v>
   <v>       0.03265306 </v>
   <v>       0.06530612 </v>
   <v>       0.06530612 </v>
   <v>       0.03265306 </v>
   <v>       0.06530612 </v>
   <v>       0.03265306 </v>
  </varray>
 </kpoints>
 <parameters>
  <separator name="general" >
   <i type="string" name="SYSTEM">Ga2BiAs</i>
   <i type="logical" name="LCOMPAT"> F  </i>
  </separator>
  <separator name="electronic" >
   <i type="string" name="PREC">accura</i>
   <i name="ENMAX">    500.00000000</i>
   <i name="ENAUG">    462.75800000</i>
   <i name="EDIFF">      0.00000100</i>
   <i type="int" name="IALGO">    38</i>
   <i type="int" name="IWAVPR">    10</i>
   <i type="int" name="NBANDS">    20</i>
   <i name="NELECT">     26.00000000</i>
   <i type="int" name="TURBO">     0</i>
   <i type="int" name="IRESTART">     0</i>
   <i type="int" name="NREBOOT">     0</i>
   <i type="int" name="NMIN">     0</i>
   <i name="EREF">      0.00000000</i>
   <separator name="electronic smearing" >
    <i type="int" name="ISMEAR">     1</i>
    <i name="SIGMA">      0.20000000</i>
    <i name="KSPACING">      0.50000000</i>
    <i type="logical" name="KGAMMA"> T  </i>
   </separator>
   <separator name="electronic projectors" >
    <i type="logical" name="LREAL"> F  </i>
    <v name="ROPT">      0.00000000      0.00000000      0.00000000</v>
    <i type="int" name="LMAXPAW">  -100</i>
    <i type="int" name="LMAXMIX">     2</i>
    <i type="logical" name="NLSPLINE"> F  </i>
   </separator>
   <separator name="electronic startup" >
    <i type="int" name="ISTART">     0</i>
    <i type="int" name="ICHARG">     2</i>
    <i type="int" name="INIWAV">     1</i>
   </separator>
   <separator name="electronic spin" >
    <i type="int" name="ISPIN">     1</i>
    <i type="logical" name="LNONCOLLINEAR"> F  </i>
    <v name="MAGMOM">      1.00000000      1.00000000      1.00000000      1.00000000</v>
    <i name="NUPDOWN">     -1.00000000</i>
    <i type="logical" name="LSORBIT"> F  </i>
    <v name="SAXIS">      0.00000000      0.00000000      1.00000000</v>
    <i type="logical" name="LSPIRAL"> F  </i>
    <v name="QSPIRAL">      0.00000000      0.00000000      0.00000000</v>
    <i type="logical" name="LZEROZ"> F  </i>
   </separator>
   <separator name="electronic exchange-correlation" >
    <i type="logical" name="LASPH"> F  </i>
    <i type="logical" name="LMETAGGA"> F  </i>
   </separator>
   <separator name="electronic convergence" >
    <i type="int" name="NELM">    60</i>
    <i type="int" name="NELMDL">     0</i>
    <i type="int" name="NELMIN">     2</i>
    <i name="ENINI">    500.00000000</i>
    <separator name="electronic convergence detail" >
     <i type="logical" name="LDIAG"> T  </i>
     <i type="logical" name="LSUBROT"> F  </i>
     <i name="WEIMIN">      0.00000000</i>
     <i name="EBREAK">      0.00000001</i>
     <i name="DEPER">      0.30000000</i>
     <i type="int" name="NRMM">     4</i>
     <i name="TIME">      0.40000000</i>
    </separator>
   </separator>
   <separator name="electronic mixer" >
    <i name="AMIX">      0.40000000</i>
    <i name="BMIX">      1.00000000</i>
    <i name="AMIN">      0.10000000</i>
    <i name="AMIX_MAG">      1.60000000</i>
    <i name="BMIX_MAG">      1.00000000</i>
    <separator name="electronic mixer details" >
     <i type="int" name="IMIX">     4</i>
     <i type="logical" name="MIXFIRST"> F  </i>
     <i type="int" name="MAXMIX">   -45</i>
     <i name="WC">    100.00000000</i>
     <i type="int" name="INIMIX">     1</i>
     <i type="int" name="MIXPRE">     1</i>
     <i type="int" name="MREMOVE">     5</i>
    </separator>
   </separator>
   <separator name="electronic dipolcorrection" >
    <i type="logical" name="LDIPOL"> F  </i>
    <i type="logical" name="LMONO"> F  </i>
    <i type="int" name="IDIPOL">     0</i>
    <i name="EPSILON">      1.00000000</i>
    <v name="DIPOL">   -100.00000000   -100.00000000   -100.00000000</v>
    <i name="EFIELD">      0.00000000</i>
   </separator>
  </separator>
  <separator name="grids" >
   <i type="int" name="NGX">    32</i>
   <i type="int" name="NGY">    32</i>
   <i type="int" name="NGZ">    48</i>
   <i type="int" name="NGXF">    64</i>
   <i type="int" name="NGYF">    64</i>
   <i type="int" name="NGZF">    96</i>
   <i type="logical" name="ADDGRID"> F  </i>
  </separator>
  <separator name="ionic" >
   <i type="int" name="NSW">     0</i>
   <i type="int" name="IBRION">    -1</i>
   <i type="int" name="MDALGO">     0</i>
   <i type="int" name="ISIF">     2</i>
   <i name="PSTRESS">      0.00000000</i>
   <i name="EDIFFG">     -0.01000000</i>
   <i type="int" name="NFREE">     0</i>
   <i name="POTIM">      0.50000000</i>
   <i name="SMASS">     -3.00000000</i>
   <i name="SCALEE">      1.00000000</i>
  </separator>
  <separator name="ionic md" >
   <i name="TEBEG">      0.00010000</i>
   <i name="TEEND">      0.00010000</i>
   <i type="int" name="NBLOCK">     1</i>
   <i type="int" name="KBLOCK">     1</i>
   <i type="int" name="NPACO">   256</i>
   <i name="APACO">     16.00000000</i>
  </separator>
  <separator name="symmetry" >
   <i type="int" name="ISYM">     2</i>
   <i name="SYMPREC">      0.00001000</i>
  </separator>
  <separator name="dos" >
   <i type="int" name="LORBIT">     0</i>
   <v name="RWIGS">     -1.00000000     -1.00000000     -1.00000000</v>
   <i type="int" name="NEDOS">   301</i>
   <i name="EMIN">     10.00000000</i>
   <i name="EMAX">    -10.00000000</i>
   <i name="EFERMI">      0.00000000</i>
  </separator>
  <separator name="writing" >
   <i type="int" name="NWRITE">     2</i>
   <i type="logical" name="LWAVE"> T  </i>
   <i type="logical" name="LDOWNSAMPLE"> F  </i>
   <i type="logical" name="LCHARG"> T  </i>
   <i type="logical" name="LPARD"> F  </i>
   <i type="logical" name="LVTOT"> F  </i>
   <i type="logical" name="LVHAR"> F  </i>
   <i type="logical" name="LELF"> F  </i>
   <i type="logical" name="LOPTICS"> F  </i>
   <v name="STM">      0.00000000      0.00000000      0.00000000      0.00000000      0.00000000      0.00000000      0.00000000</v>
  </separator>
  <separator name="performance" >
   <i type="int" name="NPAR">     4</i>
   <i type="int" name="NSIM">     4</i>
   <i type="int" name="NBLK">    -1</i>
   <i type="logical" name="LPLANE"> T  </i>
   <i type="logical" name="LSCALAPACK"> T  </i>
   <i type="logical" name="LSCAAWARE"> F  </i>
   <i type="logical" name="LSCALU"> F  </i>
   <i type="logical" name="LASYNC"> F  </i>
   <i type="logical" name="LORBITALREAL"> F  </i>
  </separator>
  <separator name="miscellaneous" >
   <i type="int" name="IDIOT">     3</i>
   <i type="int" name="ISPECIAL">     0</i>
   <i type="logical" name="LMUSIC"> F  </i>
   <v name="POMASS">     69.72300000    208.98000000     74.92200000</v>
   <v name="DARWINR">      0.00000000      0.00000000      0.00000000</v>
   <v name="DARWINV">      1.00000000      1.00000000      1.00000000</v>
   <i type="logical" name="LCORR"> T  </i>
  </separator>
  <i type="logical" name="GGA_COMPAT"> T  </i>
  <i type="logical" name="LBERRY"> F  </i>
  <i type="int" name="ICORELEVEL">     0</i>
  <i type="logical" name="LDAU"> F  </i>
  <i type="int" name="I_CONSTRAINED_M">     0</i>
  <separator name="electronic exchange-correlation" >
   <i type="string" name="GGA">--</i>
   <i type="int" name="VOSKOWN">     0</i>
   <i type="logical" name="LHFCALC"> F  </i>
   <i type="string" name="PRECFOCK"></i>
   <i type="logical" name="LSYMGRAD"> F  </i>
   <i type="logical" name="LHFONE"> F  </i>
   <i type="logical" name="LRHFCALC"> F  </i>
   <i type="logical" name="LTHOMAS"> F  </i>
   <i type="logical" name="LMODELHF"> F  </i>
   <i name="ENCUT4O">     -1.00000000</i>
   <i type="int" name="EXXOEP">     0</i>
   <i type="int" name="FOURORBIT">     0</i>
   <i name="AEXX">      0.00000000</i>
   <i name="HFALPHA">      0.00000000</i>
   <i name="MCALPHA">      0.00000000</i>
   <i name="ALDAX">      1.00000000</i>
   <i name="AGGAX">      1.00000000</i>
   <i name="ALDAC">      1.00000000</i>
   <i name="AGGAC">      1.00000000</i>
   <i type="int" name="NKREDX">     1</i>
   <i type="int" name="NKREDY">     1</i>
   <i type="int" name="NKREDZ">     1</i>
   <i type="logical" name="SHIFTRED"> F  </i>
   <i type="logical" name="ODDONLY"> F  </i>
   <i type="logical" name="EVENONLY"> F  </i>
   <i type="int" name="LMAXFOCK">     0</i>
   <i type="int" name="NMAXFOCKAE">     0</i>
   <i type="logical" name="LFOCKAEDFT"> F  </i>
   <i name="HFSCREEN">      0.00000000</i>
   <i name="HFSCREENC">      0.00000000</i>
   <i type="int" name="NBANDSGWLOW">     0</i>
  </separator>
  <separator name="vdW DFT" >
   <i type="logical" name="LUSE_VDW"> F  </i>
   <i name="Zab_VDW">     -0.84910000</i>
   <i name="PARAM1">      0.12340000</i>
   <i name="PARAM2">      1.00000000</i>
   <i name="PARAM3">      0.00000000</i>
  </separator>
  <separator name="model GW" >
   <i type="int" name="MODEL_GW">     0</i>
   <i name="MODEL_EPS0">     17.04666266</i>
   <i name="MODEL_ALPHA">      1.00000000</i>
  </separator>
  <separator name="linear response parameters" >
   <i type="logical" name="LEPSILON"> F  </i>
   <i type="logical" name="LRPA"> F  </i>
   <i type="logical" name="LNABLA"> F  </i>
   <i type="logical" name="LVEL"> F  </i>
   <i type="int" name="KINTER">     0</i>
   <i name="CSHIFT">      0.10000000</i>
   <i name="OMEGAMAX">     -1.00000000</i>
   <i name="DEG_THRESHOLD">      0.00200000</i>
   <i name="RTIME">     -0.10000000</i>
   <i name="WPLASMAI">      0.00000000</i>
   <v name="DFIELD">      0.00000000      0.00000000      0.00000000</v>
   <v name="WPLASMA">      0.00000000      0.00000000      0.00000000      0.00000000      0.00000000      0.00000000      0.00000000      0.00000000      0.00000000</v>
  </separator>
  <separator name="orbital magnetization" >
   <i type="logical" name="NUCIND"> F  </i>
   <v name="MAGPOS">      0.00000000      0.00000000      0.00000000</v>
   <i type="logical" name="LNICSALL"> T  </i>
   <i type="logical" name="ORBITALMAG"> F  </i>
   <i type="logical" name="LMAGBLOCH"> F  </i>
   <i type="logical" name="LCHIMAG"> F  </i>
   <i type="logical" name="LGAUGE"> T  </i>
   <i type="int" name="MAGATOM">     0</i>
   <v name="MAGDIPOL">      0.00000000      0.00000000      0.00000000</v>
   <v name="AVECCONST">      0.00000000      0.00000000      0.00000000</v>
  </separator>
  <separator name="response functions" >
   <i type="logical" name="LADDER"> F  </i>
   <i type="logical" name="LRPAFORCE"> F  </i>
   <i type="logical" name="LFXC"> F  </i>
   <i type="logical" name="LHARTREE"> T  </i>
   <i type="int" name="IBSE">     0</i>
   <v type="int" name="KPOINT">    -1     0     0     0</v>
   <i type="logical" name="LTCTE"> F  </i>
   <i type="logical" name="LTETE"> F  </i>
   <i type="logical" name="LTRIPLET"> F  </i>
   <i type="logical" name="LFXCEPS"> F  </i>
   <i type="logical" name="LFXHEG"> F  </i>
   <i type="int" name="NATURALO">     2</i>
   <i type="logical" name="L2ORDER"> F  </i>
   <i type="logical" name="LMP2LT"> F  </i>
   <i type="logical" name="LUSEW"> F  </i>
   <i name="ENCUTGW">     -2.00000000</i>
   <i name="ENCUTGWSOFT">     -2.00000000</i>
   <i name="ENCUTLF">     -1.00000000</i>
   <i type="int" name="LMAXMP2">    -1</i>
   <i name="SCISSOR">      0.00000000</i>
   <i type="int" name="NOMEGA">     0</i>
   <i type="int" name="NOMEGAR">     0</i>
   <i type="int" name="NBANDSGW">    -1</i>
   <i type="int" name="NBANDSO">    -1</i>
   <i type="int" name="NBANDSV">    -1</i>
   <i type="int" name="NELM">     1</i>
   <i type="int" name="NELMHF">     1</i>
   <i type="int" name="DIM">     3</i>
   <i type="int" name="ANTIRES">     0</i>
   <i name="OMEGAMAX">    -30.00000000</i>
   <i name="OMEGAMIN">    -30.00000000</i>
   <i name="OMEGATL">   -200.00000000</i>
   <i type="int" name="OMEGAGRID">   140</i>
   <i name="CSHIFT">     -0.10000000</i>
   <i type="logical" name="SELFENERGY"> F  </i>
   <i type="logical" name="LSPECTRAL"> F  </i>
   <i type="logical" name="LSPECTRALGW"> F  </i>
   <i type="logical" name="LSINGLES"> F  </i>
   <i type="logical" name="LFERMIGW"> F  </i>
   <i type="logical" name="ODDONLYGW"> F  </i>
   <i type="logical" name="EVENONLYGW"> F  </i>
   <i type="int" name="NKREDLFX">     1</i>
   <i type="int" name="NKREDLFY">     1</i>
   <i type="int" name="NKREDLFZ">     1</i>
   <i type="int" name="MAXMEM">  2800</i>
   <i type="int" name="TELESCOPE">     0</i>
   <i type="int" name="TAUPAR">     1</i>
   <i type="int" name="OMEGAPAR">    -1</i>
   <i name="LAMBDA">      1.00000000</i>
  </separator>
  <separator name="External order field" >
   <i name="OFIELD_KAPPA">      0.00000000</i>
   <v name="OFIELD_K">      0.00000000      0.00000000      0.00000000</v>
   <i name="OFIELD_Q6_NEAR">      0.00000000</i>
   <i name="OFIELD_Q6_FAR">      0.00000000</i>
   <i name="OFIELD_A">      0.00000000</i>
  </separator>
 </parameters>
 <atominfo>
  <atoms>       4 </atoms>
  <types>       3 </types>
  <array name="atoms" >
   <dimension dim="1">ion</dimension>
   <field type="string">element</field>
   <field type="int">atomtype</field>
   <set>
    <rc><c>Ga</c><c>   1</c></rc>
    <rc><c>Ga</c><c>   1</c></rc>
    <rc><c>Bi</c><c>   2</c></rc>
    <rc><c>As</c><c>   3</c></rc>
   </set>
  </array>
  <array name="atomtypes" >
   <dimension dim="1">type</dimension>
   <field type="int">atomspertype</field>
   <field type="string">element</field>
   <field>mass</field>
   <field>valence</field>
   <field type="string">pseudopotential</field>
   <set>
    <rc><c>   2</c><c>Ga</c><c>     69.72300000</c><c>      3.00000000</c><c>  PAW_PBE Ga 08Apr2002                  </c></rc>
    <rc><c>   1</c><c>Bi</c><c>    208.98000000</c><c>     15.00000000</c><c>  PAW_PBE Bi_d 06Sep2000                </c></rc>
    <rc><c>   1</c><c>As</c><c>     74.92200000</c><c>      5.00000000</c><c>  PAW_PBE As 22Sep2009                  </c></rc>
   </set>
  </array>
 </atominfo>
 <structure name="initialpos" >
  <crystal>
   <varray name="basis" >
    <v>       4.30014086       0.00000000       0.00000000 </v>
    <v>       0.00000000       4.30014086       0.00000000 </v>
    <v>       0.00000000       0.00000000       6.14586115 </v>
   </varray>
   <i name="volume">    113.64441771 </i>
   <varray name="rec_basis" >
    <v>       0.23255052       0.00000000       0.00000000 </v>
    <v>       0.00000000       0.23255052       0.00000000 </v>
    <v>       0.00000000       0.00000000       0.16271113 </v>
   </varray>
  </crystal>
  <varray name="positions" >
   <v>       0.50000000       0.00000000       0.72573602 </v>
   <v>       0.00000000       0.50000000       0.27426400 </v>
   <v>       0.00000000       0.00000000       0.00000000 </v>
   <v>       0.50000000       0.50000000       0.50000000 </v>
  </varray>
 </structure>
 <calculation>
  <scstep>
   <time name="dav">    0.51    0.51</time>
   <time name="total">    0.55    0.55</time>
   <energy>
    <i name="alphaZ">     64.20128509 </i>
    <i name="ewald">  -1439.91766544 </i>
    <i name="hartreedc">   -749.41397116 </i>
    <i name="XCdc">     -1.78998093 </i>
    <i name="pawpsdc">   1946.54768465 </i>
    <i name="pawaedc">  -1848.13466329 </i>
    <i name="eentropy">     -0.00239712 </i>
    <i name="bandstr">    -41.17710627 </i>
    <i name="atom">   2247.12322143 </i>
    <i name="e_fr_energy">    177.43640696 </i>
    <i name="e_wo_entrp">    177.43880408 </i>
    <i name="e_0_energy">    177.43720600 </i>
   </energy>
  </scstep>
  <scstep>
   <time name="dav">    0.58    0.58</time>
   <time name="total">    0.58    0.59</time>
   <energy>
    <i name="e_fr_energy">     -0.15947989 </i>
    <i name="e_wo_entrp">     -0.15782191 </i>
    <i name="e_0_energy">     -0.15892723 </i>
   </energy>
  </scstep>
  <scstep>
   <time name="dav">    0.60    0.60</time>
   <time name="total">    0.60    0.61</time>
   <energy>
    <i name="e_fr_energy">    -14.65002927 </i>
    <i name="e_wo_entrp">    -14.64941622 </i>
    <i name="e_0_energy">    -14.64982492 </i>
   </energy>
  </scstep>
  <scstep>
   <time name="dav">    0.56    0.56</time>
   <time name="total">    0.56    0.56</time>
   <energy>
    <i name="e_fr_energy">    -15.02052743 </i>
    <i name="e_wo_entrp">    -15.02086430 </i>
    <i name="e_0_energy">    -15.02063972 </i>
   </energy>
  </scstep>
  <scstep>
   <time name="dav">    0.66    0.66</time>
   <time name="total">    0.71    0.71</time>
   <energy>
    <i name="e_fr_energy">    -15.03296283 </i>
    <i name="e_wo_entrp">    -15.03332915 </i>
    <i name="e_0_energy">    -15.03308494 </i>
   </energy>
  </scstep>
  <scstep>
   <time name="dav">    0.55    0.55</time>
   <time name="total">    0.62    0.63</time>
   <energy>
    <i name="e_fr_energy">    -14.88124415 </i>
    <i name="e_wo_entrp">    -14.88103454 </i>
    <i name="e_0_energy">    -14.88117428 </i>
   </energy>
  </scstep>
  <scstep>
   <time name="dav">    0.54    0.54</time>
   <time name="total">    0.62    0.62</time>
   <energy>
    <i name="e_fr_energy">    -14.84831528 </i>
    <i name="e_wo_entrp">    -14.84819995 </i>
    <i name="e_0_energy">    -14.84827684 </i>
   </energy>
  </scstep>
  <scstep>
   <time name="dav">    0.54    0.55</time>
   <time name="total">    0.62    0.62</time>
   <energy>
    <i name="e_fr_energy">    -14.84803676 </i>
    <i name="e_wo_entrp">    -14.84810471 </i>
    <i name="e_0_energy">    -14.84805941 </i>
   </energy>
  </scstep>
  <scstep>
   <time name="dav">    0.53    0.53</time>
   <time name="total">    0.61    0.61</time>
   <energy>
    <i name="e_fr_energy">    -14.84896390 </i>
    <i name="e_wo_entrp">    -14.84892899 </i>
    <i name="e_0_energy">    -14.84895226 </i>
   </energy>
  </scstep>
  <scstep>
   <time name="dav">    0.65    0.65</time>
   <time name="total">    0.73    0.73</time>
   <energy>
    <i name="e_fr_energy">    -14.84909029 </i>
    <i name="e_wo_entrp">    -14.84902042 </i>
    <i name="e_0_energy">    -14.84906700 </i>
   </energy>
  </scstep>
  <scstep>
   <time name="dav">    0.51    0.51</time>
   <time name="total">    0.59    0.59</time>
   <energy>
    <i name="e_fr_energy">    -14.84919981 </i>
    <i name="e_wo_entrp">    -14.84912388 </i>
    <i name="e_0_energy">    -14.84917450 </i>
   </energy>
  </scstep>
  <scstep>
   <time name="dav">    0.57    0.57</time>
   <time name="total">    0.64    0.65</time>
   <energy>
    <i name="e_fr_energy">    -14.84920102 </i>
    <i name="e_wo_entrp">    -14.84912566 </i>
    <i name="e_0_energy">    -14.84917590 </i>
   </energy>
  </scstep>
  <scstep>
   <time name="dav">    0.51    0.51</time>
   <time name="total">    0.59    0.59</time>
   <energy>
    <i name="e_fr_energy">    -14.84920279 </i>
    <i name="e_wo_entrp">    -14.84912397 </i>
    <i name="e_0_energy">    -14.84917652 </i>
   </energy>
  </scstep>
  <scstep>
   <time name="dav">    0.41    0.41</time>
   <time name="total">    0.43    0.44</time>
   <energy>
    <i name="alphaZ">     64.20128509 </i>
    <i name="ewald">  -1439.91766544 </i>
    <i name="hartreedc">   -753.76816190 </i>
    <i name="XCdc">     -0.92245482 </i>
    <i name="pawpsdc">   2420.19690622 </i>
    <i name="pawaedc">  -2324.80537817 </i>
    <i name="eentropy">     -0.00007865 </i>
    <i name="bandstr">   -226.95687658 </i>
    <i name="atom">   2247.12322143 </i>
    <i name="e_fr_energy">    -14.84920283 </i>
    <i name="e_wo_entrp">    -14.84912418 </i>
    <i name="e_0_energy">    -14.84917662 </i>
   </energy>
  </scstep>
  <structure>
   <crystal>
    <varray name="basis" >
     <v>       4.30014086       0.00000000       0.00000000 </v>
     <v>       0.00000000       4.30014086       0.00000000 </v>
     <v>       0.00000000       0.00000000       6.14586115 </v>
    </varray>
    <i name="volume">    113.64441771 </i>
    <varray name="rec_basis" >
     <v>       0.23255052       0.00000000       0.00000000 </v>
     <v>       0.00000000       0.23255052       0.00000000 </v>
     <v>       0.00000000       0.00000000       0.16271113 </v>
    </varray>
   </crystal>
   <varray name="positions" >
    <v>       0.50000000       0.00000000       0.72573602 </v>
    <v>       0.00000000       0.50000000       0.27426400 </v>
    <v>       0.00000000       0.00000000       0.00000000 </v>
    <v>       0.50000000       0.50000000       0.50000000 </v>
   </varray>
  </structure>
  <varray name="forces" >
   <v>      -0.00000000      -0.00000000       0.01266553 </v>
   <v>       0.00000000      -0.00000000      -0.01266553 </v>
   <v>      -0.00000000      -0.00000000       0.00000000 </v>
   <v>      -0.00000000       0.00000000       0.00000000 </v>
  </varray>
  <varray name="stress" >
   <v>       1.38543497       0.00000000      -0.00000000 </v>
   <v>       0.00000000       1.38543497       0.00000000 </v>
   <v>      -0.00000000       0.00000000      -0.35672249 </v>
  </varray>
  <energy>
   <i name="e_fr_energy">    -14.84920283 </i>
   <i name="e_wo_entrp">    -14.84917662 </i>
   <i name="e_0_energy">     -0.00007865 </i>
  </energy>
  <time name="totalsc">    9.57    9.94</time>
  <eigenvalues>
   <array>
    <dimension dim="1">band</dimension>
    <dimension dim="2">kpoint</dimension>
    <dimension dim="3">spin</dimension>
    <field>eigene</field>
    <field>occ</field>
    <set>
     <set comment="spin 1">
      <set comment="kpoint 1">
       <r>  -19.2925    1.0000 </r>
       <r>  -19.2812    1.0000 </r>
       <r>  -19.2812    1.0000 </r>
       <r>  -19.2622    1.0000 </r>
       <r>  -19.2456    1.0000 </r>
       <r>   -9.1735    1.0000 </r>
       <r>   -7.4350    1.0000 </r>
       <r>   -3.5299    1.0000 </r>
       <r>    0.4613    1.0000 </r>
       <r>    0.4613    1.0000 </r>
       <r>    1.8435    1.0000 </r>
       <r>    2.9262    0.9820 </r>
       <r>    3.1784    0.1349 </r>
       <r>    3.1784    0.1349 </r>
       <r>    4.1223   -0.0000 </r>
       <r>    4.3907   -0.0000 </r>
       <r>    6.1886   -0.0000 </r>
       <r>    6.1886   -0.0000 </r>
       <r>    6.3560   -0.0000 </r>
       <r>    8.8946    0.0000 </r>
      </set>
      <set comment="kpoint 2">
       <r>  -19.2903    1.0000 </r>
       <r>  -19.2824    1.0000 </r>
       <r>  -19.2811    1.0000 </r>
       <r>  -19.2613    1.0000 </r>
       <r>  -19.2465    1.0000 </r>
       <r>   -9.0554    1.0000 </r>
       <r>   -7.4302    1.0000 </r>
       <r>   -3.4798    1.0000 </r>
       <r>   -0.1505    1.0000 </r>
       <r>    0.5695    1.0000 </r>
       <r>    0.8865    1.0000 </r>
       <r>    2.4739    1.0001 </r>
       <r>    3.1146    0.3567 </r>
       <r>    3.6226   -0.0004 </r>
       <r>    4.4737   -0.0000 </r>
       <r>    5.3043   -0.0000 </r>
       <r>    6.1867   -0.0000 </r>
       <r>    6.3203   -0.0000 </r>
       <r>    7.0442   -0.0000 </r>
       <r>    9.6806    0.0000 </r>
      </set>
      <set comment="kpoint 3">
       <r>  -19.2896    1.0000 </r>
       <r>  -19.2814    1.0000 </r>
       <r>  -19.2807    1.0000 </r>
       <r>  -19.2586    1.0000 </r>
       <r>  -19.2484    1.0000 </r>
       <r>   -8.7214    1.0000 </r>
       <r>   -7.4924    1.0000 </r>
       <r>   -3.3350    1.0000 </r>
       <r>   -1.0498    1.0000 </r>
       <r>   -0.2843    1.0000 </r>
       <r>    0.8602    1.0000 </r>
       <r>    1.4494    1.0000 </r>
       <r>    2.9035    1.0084 </r>
       <r>    4.0690   -0.0000 </r>
       <r>    4.9899   -0.0000 </r>
       <r>    6.5006   -0.0000 </r>
       <r>    6.7274   -0.0000 </r>
       <r>    7.1281   -0.0000 </r>
       <r>    8.1799   -0.0000 </r>
       <r>    9.3374    0.0000 </r>
      </set>
      <set comment="kpoint 4">
       <r>  -19.2921    1.0000 </r>
       <r>  -19.2805    1.0000 </r>
       <r>  -19.2785    1.0000 </r>
       <r>  -19.2554    1.0000 </r>
       <r>  -19.2500    1.0000 </r>
       <r>   -8.2476    1.0000 </r>
       <r>   -7.7642    1.0000 </r>
       <r>   -2.9864    1.0000 </r>
       <r>   -2.1161    1.0000 </r>
       <r>   -0.3047    1.0000 </r>
       <r>    0.4088    1.0000 </r>
       <r>    1.1848    1.0000 </r>
       <r>    2.6206    1.0027 </r>
       <r>    4.3737   -0.0000 </r>
       <r>    5.4060   -0.0000 </r>
       <r>    7.1559   -0.0000 </r>
       <r>    7.4274   -0.0000 </r>
       <r>    7.5512   -0.0000 </r>
       <r>    8.3948   -0.0000 </r>
       <r>    8.4311   -0.0000 </r>
      </set>
      <set comment="kpoint 5">
       <r>  -19.2886    1.0000 </r>
       <r>  -19.2832    1.0000 </r>
       <r>  -19.2804    1.0000 </r>
       <r>  -19.2607    1.0000 </r>
       <r>  -19.2474    1.0000 </r>
       <r>   -8.9384    1.0000 </r>
       <r>   -7.4156    1.0000 </r>
       <r>   -3.4458    1.0000 </r>
       <r>   -0.2459    1.0000 </r>
       <r>   -0.0017    1.0000 </r>
       <r>    0.6445    1.0000 </r>
       <r>    2.2200    1.0000 </r>
       <r>    2.3957    1.0000 </r>
       <r>    4.3737   -0.0000 </r>
       <r>    5.2797   -0.0000 </r>
       <r>    5.3636   -0.0000 </r>
       <r>    5.8126   -0.0000 </r>
       <r>    7.2110   -0.0000 </r>
       <r>    7.5036   -0.0000 </r>
       <r>    9.4230    0.0000 </r>
      </set>
      <set comment="kpoint 6">
       <r>  -19.2892    1.0000 </r>
       <r>  -19.2840    1.0000 </r>
       <r>  -19.2766    1.0000 </r>
       <r>  -19.2583    1.0000 </r>
       <r>  -19.2494    1.0000 </r>
       <r>   -8.6089    1.0000 </r>
       <r>   -7.4489    1.0000 </r>
       <r>   -3.3489    1.0000 </r>
       <r>   -1.2283    1.0000 </r>
       <r>   -0.2941    1.0000 </r>
       <r>    0.4486    1.0000 </r>
       <r>    1.4383    1.0000 </r>
       <r>    2.0661    1.0000 </r>
       <r>    4.7871   -0.0000 </r>
       <r>    5.3450   -0.0000 </r>
       <r>    5.8732   -0.0000 </r>
       <r>    7.3050   -0.0000 </r>
       <r>    7.9244   -0.0000 </r>
       <r>    8.0468   -0.0000 </r>
       <r>    8.4574   -0.0000 </r>
      </set>
      <set comment="kpoint 7">
       <r>  -19.2919    1.0000 </r>
       <r>  -19.2835    1.0000 </r>
       <r>  -19.2735    1.0000 </r>
       <r>  -19.2554    1.0000 </r>
       <r>  -19.2510    1.0000 </r>
       <r>   -8.1469    1.0000 </r>
       <r>   -7.6836    1.0000 </r>
       <r>   -3.0580    1.0000 </r>
       <r>   -2.2709    1.0000 </r>
       <r>   -0.2019    1.0000 </r>
       <r>    0.4838    1.0000 </r>
       <r>    0.7350    1.0000 </r>
       <r>    1.8666    1.0000 </r>
       <r>    5.1073   -0.0000 </r>
       <r>    5.8189   -0.0000 </r>
       <r>    5.9926   -0.0000 </r>
       <r>    6.8418   -0.0000 </r>
       <r>    7.6054   -0.0000 </r>
       <r>    7.8550   -0.0000 </r>
       <r>    8.8836    0.0000 </r>
      </set>
      <set comment="kpoint 8">
       <r>  -19.2889    1.0000 </r>
       <r>  -19.2877    1.0000 </r>
       <r>  -19.2693    1.0000 </r>
       <r>  -19.2574    1.0000 </r>
       <r>  -19.2515    1.0000 </r>
       <r>   -8.2964    1.0000 </r>
       <r>   -7.3905    1.0000 </r>
       <r>   -3.3979    1.0000 </r>
       <r>   -1.9164    1.0000 </r>
       <r>   -0.2100    1.0000 </r>
       <r>    0.1637    1.0000 </r>
       <r>    1.2294    1.0000 </r>
       <r>    1.3529    1.0000 </r>
       <r>    4.3796   -0.0000 </r>
       <r>    5.1978   -0.0000 </r>
       <r>    6.4329   -0.0000 </r>
       <r>    6.7931   -0.0000 </r>
       <r>    7.9197   -0.0000 </r>
       <r>    8.1977   -0.0000 </r>
       <r>    9.1476    0.0000 </r>
      </set>
      <set comment="kpoint 9">
       <r>  -19.2915    1.0000 </r>
       <r>  -19.2879    1.0000 </r>
       <r>  -19.2646    1.0000 </r>
       <r>  -19.2553    1.0000 </r>
       <r>  -19.2532    1.0000 </r>
       <r>   -7.8812    1.0000 </r>
       <r>   -7.4937    1.0000 </r>
       <r>   -3.2980    1.0000 </r>
       <r>   -2.7517    1.0000 </r>
       <r>    0.0373    1.0000 </r>
       <r>    0.3549    1.0000 </r>
       <r>    0.6680    1.0000 </r>
       <r>    1.0781    1.0000 </r>
       <r>    4.5274   -0.0000 </r>
       <r>    4.9151   -0.0000 </r>
       <r>    5.4803   -0.0000 </r>
       <r>    5.8384   -0.0000 </r>
       <r>    8.2312   -0.0000 </r>
       <r>    9.7068    0.0000 </r>
       <r>   10.0364    0.0000 </r>
      </set>
      <set comment="kpoint 10">
       <r>  -19.2913    1.0000 </r>
       <r>  -19.2911    1.0000 </r>
       <r>  -19.2580    1.0000 </r>
       <r>  -19.2549    1.0000 </r>
       <r>  -19.2549    1.0000 </r>
       <r>   -7.5908    1.0000 </r>
       <r>   -7.3542    1.0000 </r>
       <r>   -3.5115    1.0000 </r>
       <r>   -3.3079    1.0000 </r>
       <r>    0.2456    1.0000 </r>
       <r>    0.4797    1.0000 </r>
       <r>    0.6624    1.0000 </r>
       <r>    0.8734    1.0000 </r>
       <r>    4.0202   -0.0000 </r>
       <r>    4.2821   -0.0000 </r>
       <r>    4.5787   -0.0000 </r>
       <r>    4.9591   -0.0000 </r>
       <r>   10.3391    0.0000 </r>
       <r>   10.4255    0.0000 </r>
       <r>   10.8855    0.0000 </r>
      </set>
      <set comment="kpoint 11">
       <r>  -19.2926    1.0000 </r>
       <r>  -19.2812    1.0000 </r>
       <r>  -19.2812    1.0000 </r>
       <r>  -19.2621    1.0000 </r>
       <r>  -19.2456    1.0000 </r>
       <r>   -9.0594    1.0000 </r>
       <r>   -7.6961    1.0000 </r>
       <r>   -3.0963    1.0000 </r>
       <r>    0.5727    1.0000 </r>
       <r>    0.5727    1.0000 </r>
       <r>    0.7302    1.0000 </r>
       <r>    2.7951    1.0308 </r>
       <r>    2.7951    1.0308 </r>
       <r>    3.7651   -0.0000 </r>
       <r>    4.3467   -0.0000 </r>
       <r>    4.6432   -0.0000 </r>
       <r>    5.9894   -0.0000 </r>
       <r>    6.7710   -0.0000 </r>
       <r>    6.7710   -0.0000 </r>
       <r>    9.6280    0.0000 </r>
      </set>
      <set comment="kpoint 12">
       <r>  -19.2903    1.0000 </r>
       <r>  -19.2824    1.0000 </r>
       <r>  -19.2811    1.0000 </r>
       <r>  -19.2613    1.0000 </r>
       <r>  -19.2465    1.0000 </r>
       <r>   -8.9455    1.0000 </r>
       <r>   -7.6636    1.0000 </r>
       <r>   -3.1236    1.0000 </r>
       <r>   -0.2590    1.0000 </r>
       <r>    0.4406    1.0000 </r>
       <r>    0.6723    1.0000 </r>
       <r>    2.6693    1.0067 </r>
       <r>    2.7956    1.0309 </r>
       <r>    3.6173   -0.0005 </r>
       <r>    4.5876   -0.0000 </r>
       <r>    5.3476   -0.0000 </r>
       <r>    6.6896   -0.0000 </r>
       <r>    6.7897   -0.0000 </r>
       <r>    6.9934   -0.0000 </r>
       <r>    9.4905    0.0000 </r>
      </set>
      <set comment="kpoint 13">
       <r>  -19.2897    1.0000 </r>
       <r>  -19.2814    1.0000 </r>
       <r>  -19.2808    1.0000 </r>
       <r>  -19.2585    1.0000 </r>
       <r>  -19.2484    1.0000 </r>
       <r>   -8.6275    1.0000 </r>
       <r>   -7.6392    1.0000 </r>
       <r>   -3.2164    1.0000 </r>
       <r>   -1.4146    1.0000 </r>
       <r>   -0.0720    1.0000 </r>
       <r>    0.9335    1.0000 </r>
       <r>    2.0098    1.0000 </r>
       <r>    2.7488    1.0205 </r>
       <r>    3.5776   -0.0012 </r>
       <r>    4.8170   -0.0000 </r>
       <r>    6.8930   -0.0000 </r>
       <r>    6.9570   -0.0000 </r>
       <r>    7.1307   -0.0000 </r>
       <r>    8.0431   -0.0000 </r>
       <r>    8.9060    0.0000 </r>
      </set>
      <set comment="kpoint 14">
       <r>  -19.2922    1.0000 </r>
       <r>  -19.2805    1.0000 </r>
       <r>  -19.2785    1.0000 </r>
       <r>  -19.2553    1.0000 </r>
       <r>  -19.2500    1.0000 </r>
       <r>   -8.1949    1.0000 </r>
       <r>   -7.7916    1.0000 </r>
       <r>   -3.1537    1.0000 </r>
       <r>   -2.4346    1.0000 </r>
       <r>    0.1758    1.0000 </r>
       <r>    0.9736    1.0000 </r>
       <r>    1.2076    1.0000 </r>
       <r>    2.6288    1.0032 </r>
       <r>    3.9879   -0.0000 </r>
       <r>    4.8952   -0.0000 </r>
       <r>    6.9391   -0.0000 </r>
       <r>    7.1921   -0.0000 </r>
       <r>    7.2477   -0.0000 </r>
       <r>    7.9928   -0.0000 </r>
       <r>    9.0121    0.0000 </r>
      </set>
      <set comment="kpoint 15">
       <r>  -19.2886    1.0000 </r>
       <r>  -19.2833    1.0000 </r>
       <r>  -19.2804    1.0000 </r>
       <r>  -19.2606    1.0000 </r>
       <r>  -19.2474    1.0000 </r>
       <r>   -8.8326    1.0000 </r>
       <r>   -7.6258    1.0000 </r>
       <r>   -3.1440    1.0000 </r>
       <r>   -0.6021    1.0000 </r>
       <r>    0.1033    1.0000 </r>
       <r>    0.6176    1.0000 </r>
       <r>    1.9824    1.0000 </r>
       <r>    2.6240    1.0029 </r>
       <r>    4.2154   -0.0000 </r>
       <r>    5.3566   -0.0000 </r>
       <r>    5.7221   -0.0000 </r>
       <r>    6.0898   -0.0000 </r>
       <r>    7.2117   -0.0000 </r>
       <r>    7.5204   -0.0000 </r>
       <r>    8.5277   -0.0000 </r>
      </set>
      <set comment="kpoint 16">
       <r>  -19.2892    1.0000 </r>
       <r>  -19.2840    1.0000 </r>
       <r>  -19.2766    1.0000 </r>
       <r>  -19.2583    1.0000 </r>
       <r>  -19.2494    1.0000 </r>
       <r>   -8.5189    1.0000 </r>
       <r>   -7.5841    1.0000 </r>
       <r>   -3.2262    1.0000 </r>
       <r>   -1.5680    1.0000 </r>
       <r>   -0.1966    1.0000 </r>
       <r>    0.6547    1.0000 </r>
       <r>    1.7491    1.0000 </r>
       <r>    1.8735    1.0000 </r>
       <r>    4.5155   -0.0000 </r>
       <r>    5.6179   -0.0000 </r>
       <r>    6.0996   -0.0000 </r>
       <r>    6.8622   -0.0000 </r>
       <r>    7.5454   -0.0000 </r>
       <r>    8.0012   -0.0000 </r>
       <r>    8.5329   -0.0000 </r>
      </set>
      <set comment="kpoint 17">
       <r>  -19.2920    1.0000 </r>
       <r>  -19.2835    1.0000 </r>
       <r>  -19.2735    1.0000 </r>
       <r>  -19.2553    1.0000 </r>
       <r>  -19.2510    1.0000 </r>
       <r>   -8.0975    1.0000 </r>
       <r>   -7.7094    1.0000 </r>
       <r>   -3.1716    1.0000 </r>
       <r>   -2.5152    1.0000 </r>
       <r>    0.0267    1.0000 </r>
       <r>    0.6745    1.0000 </r>
       <r>    1.0676    1.0000 </r>
       <r>    1.8623    1.0000 </r>
       <r>    4.6257   -0.0000 </r>
       <r>    5.1923   -0.0000 </r>
       <r>    6.3919   -0.0000 </r>
       <r>    6.9135   -0.0000 </r>
       <r>    8.0887   -0.0000 </r>
       <r>    8.3374   -0.0000 </r>
       <r>    8.4957   -0.0000 </r>
      </set>
      <set comment="kpoint 18">
       <r>  -19.2890    1.0000 </r>
       <r>  -19.2877    1.0000 </r>
       <r>  -19.2693    1.0000 </r>
       <r>  -19.2573    1.0000 </r>
       <r>  -19.2515    1.0000 </r>
       <r>   -8.2213    1.0000 </r>
       <r>   -7.4839    1.0000 </r>
       <r>   -3.3006    1.0000 </r>
       <r>   -2.1277    1.0000 </r>
       <r>   -0.4319    1.0000 </r>
       <r>    0.5802    1.0000 </r>
       <r>    1.0763    1.0000 </r>
       <r>    1.3901    1.0000 </r>
       <r>    5.0222   -0.0000 </r>
       <r>    5.1862   -0.0000 </r>
       <r>    5.7644   -0.0000 </r>
       <r>    7.5787   -0.0000 </r>
       <r>    7.9405   -0.0000 </r>
       <r>    8.1811   -0.0000 </r>
       <r>    8.6861    0.0000 </r>
      </set>
      <set comment="kpoint 19">
       <r>  -19.2916    1.0000 </r>
       <r>  -19.2879    1.0000 </r>
       <r>  -19.2646    1.0000 </r>
       <r>  -19.2552    1.0000 </r>
       <r>  -19.2532    1.0000 </r>
       <r>   -7.8435    1.0000 </r>
       <r>   -7.5120    1.0000 </r>
       <r>   -3.2986    1.0000 </r>
       <r>   -2.8462    1.0000 </r>
       <r>   -0.2626    1.0000 </r>
       <r>    0.3602    1.0000 </r>
       <r>    0.8802    1.0000 </r>
       <r>    1.1730    1.0000 </r>
       <r>    4.5436   -0.0000 </r>
       <r>    4.7494   -0.0000 </r>
       <r>    5.9945   -0.0000 </r>
       <r>    6.8563   -0.0000 </r>
       <r>    8.2143   -0.0000 </r>
       <r>    8.8733    0.0000 </r>
       <r>    9.6105    0.0000 </r>
      </set>
      <set comment="kpoint 20">
       <r>  -19.2913    1.0000 </r>
       <r>  -19.2912    1.0000 </r>
       <r>  -19.2580    1.0000 </r>
       <r>  -19.2549    1.0000 </r>
       <r>  -19.2548    1.0000 </r>
       <r>   -7.5771    1.0000 </r>
       <r>   -7.3519    1.0000 </r>
       <r>   -3.4662    1.0000 </r>
       <r>   -3.3011    1.0000 </r>
       <r>   -0.1136    1.0000 </r>
       <r>    0.3226    1.0000 </r>
       <r>    0.5198    1.0000 </r>
       <r>    0.8155    1.0000 </r>
       <r>    4.3553   -0.0000 </r>
       <r>    4.8053   -0.0000 </r>
       <r>    5.1162   -0.0000 </r>
       <r>    5.7867   -0.0000 </r>
       <r>    9.3867    0.0000 </r>
       <r>    9.9998    0.0000 </r>
       <r>   10.3288    0.0000 </r>
      </set>
      <set comment="kpoint 21">
       <r>  -19.2926    1.0000 </r>
       <r>  -19.2813    1.0000 </r>
       <r>  -19.2813    1.0000 </r>
       <r>  -19.2620    1.0000 </r>
       <r>  -19.2456    1.0000 </r>
       <r>   -8.7315    1.0000 </r>
       <r>   -8.2256    1.0000 </r>
       <r>   -2.0540    1.0000 </r>
       <r>   -0.7228    1.0000 </r>
       <r>    0.8213    1.0000 </r>
       <r>    0.8213    1.0000 </r>
       <r>    2.2180    1.0000 </r>
       <r>    2.2180    1.0000 </r>
       <r>    4.0484   -0.0000 </r>
       <r>    4.7731   -0.0000 </r>
       <r>    5.3139   -0.0000 </r>
       <r>    5.8036   -0.0000 </r>
       <r>    7.9948   -0.0000 </r>
       <r>    7.9948   -0.0000 </r>
       <r>    9.3220    0.0000 </r>
      </set>
      <set comment="kpoint 22">
       <r>  -19.2903    1.0000 </r>
       <r>  -19.2824    1.0000 </r>
       <r>  -19.2811    1.0000 </r>
       <r>  -19.2611    1.0000 </r>
       <r>  -19.2465    1.0000 </r>
       <r>   -8.6318    1.0000 </r>
       <r>   -8.1511    1.0000 </r>
       <r>   -2.2747    1.0000 </r>
       <r>   -1.2015    1.0000 </r>
       <r>    0.7201    1.0000 </r>
       <r>    0.8957    1.0000 </r>
       <r>    1.8996    1.0000 </r>
       <r>    2.2957    1.0000 </r>
       <r>    4.2863   -0.0000 </r>
       <r>    5.1470   -0.0000 </r>
       <r>    5.4173   -0.0000 </r>
       <r>    6.3438   -0.0000 </r>
       <r>    7.7888   -0.0000 </r>
       <r>    7.8223   -0.0000 </r>
       <r>    8.4596   -0.0000 </r>
      </set>
      <set comment="kpoint 23">
       <r>  -19.2897    1.0000 </r>
       <r>  -19.2814    1.0000 </r>
       <r>  -19.2808    1.0000 </r>
       <r>  -19.2584    1.0000 </r>
       <r>  -19.2484    1.0000 </r>
       <r>   -8.3682    1.0000 </r>
       <r>   -7.9807    1.0000 </r>
       <r>   -2.8657    1.0000 </r>
       <r>   -2.1302    1.0000 </r>
       <r>    0.7535    1.0000 </r>
       <r>    1.0786    1.0000 </r>
       <r>    1.9111    1.0000 </r>
       <r>    2.4813    1.0001 </r>
       <r>    3.6467   -0.0002 </r>
       <r>    4.6424   -0.0000 </r>
       <r>    6.6185   -0.0000 </r>
       <r>    6.8423   -0.0000 </r>
       <r>    7.3351   -0.0000 </r>
       <r>    8.1939   -0.0000 </r>
       <r>    8.2708   -0.0000 </r>
      </set>
      <set comment="kpoint 24">
       <r>  -19.2923    1.0000 </r>
       <r>  -19.2805    1.0000 </r>
       <r>  -19.2785    1.0000 </r>
       <r>  -19.2552    1.0000 </r>
       <r>  -19.2500    1.0000 </r>
       <r>   -8.0721    1.0000 </r>
       <r>   -7.8738    1.0000 </r>
       <r>   -3.3333    1.0000 </r>
       <r>   -2.8607    1.0000 </r>
       <r>    1.2366    1.0000 </r>
       <r>    1.2458    1.0000 </r>
       <r>    1.9068    1.0000 </r>
       <r>    2.6409    1.0040 </r>
       <r>    3.1218    0.3280 </r>
       <r>    3.8765   -0.0000 </r>
       <r>    6.7107   -0.0000 </r>
       <r>    7.0644   -0.0000 </r>
       <r>    7.3295   -0.0000 </r>
       <r>    7.4735   -0.0000 </r>
       <r>    9.4674    0.0000 </r>
      </set>
      <set comment="kpoint 25">
       <r>  -19.2886    1.0000 </r>
       <r>  -19.2833    1.0000 </r>
       <r>  -19.2805    1.0000 </r>
       <r>  -19.2605    1.0000 </r>
       <r>  -19.2474    1.0000 </r>
       <r>   -8.5330    1.0000 </r>
       <r>   -8.0755    1.0000 </r>
       <r>   -2.4107    1.0000 </r>
       <r>   -1.4834    1.0000 </r>
       <r>    0.2827    1.0000 </r>
       <r>    0.9382    1.0000 </r>
       <r>    1.5824    1.0000 </r>
       <r>    2.4162    1.0000 </r>
       <r>    4.5753   -0.0000 </r>
       <r>    5.3891   -0.0000 </r>
       <r>    5.9288   -0.0000 </r>
       <r>    6.5303   -0.0000 </r>
       <r>    7.4926   -0.0000 </r>
       <r>    7.5712   -0.0000 </r>
       <r>    8.2422   -0.0000 </r>
      </set>
      <set comment="kpoint 26">
       <r>  -19.2893    1.0000 </r>
       <r>  -19.2840    1.0000 </r>
       <r>  -19.2767    1.0000 </r>
       <r>  -19.2582    1.0000 </r>
       <r>  -19.2494    1.0000 </r>
       <r>   -8.2725    1.0000 </r>
       <r>   -7.9011    1.0000 </r>
       <r>   -2.8726    1.0000 </r>
       <r>   -2.2136    1.0000 </r>
       <r>    0.0965    1.0000 </r>
       <r>    0.8375    1.0000 </r>
       <r>    1.6363    1.0000 </r>
       <r>    2.2400    1.0000 </r>
       <r>    4.3428   -0.0000 </r>
       <r>    5.0731   -0.0000 </r>
       <r>    6.6368   -0.0000 </r>
       <r>    7.0745   -0.0000 </r>
       <r>    7.3774   -0.0000 </r>
       <r>    7.9848   -0.0000 </r>
       <r>    8.5491    0.0000 </r>
      </set>
      <set comment="kpoint 27">
       <r>  -19.2921    1.0000 </r>
       <r>  -19.2836    1.0000 </r>
       <r>  -19.2735    1.0000 </r>
       <r>  -19.2552    1.0000 </r>
       <r>  -19.2510    1.0000 </r>
       <r>   -7.9844    1.0000 </r>
       <r>   -7.7845    1.0000 </r>
       <r>   -3.2973    1.0000 </r>
       <r>   -2.8721    1.0000 </r>
       <r>    0.3139    1.0000 </r>
       <r>    1.0522    1.0000 </r>
       <r>    1.6710    1.0000 </r>
       <r>    1.8005    1.0000 </r>
       <r>    4.1210   -0.0000 </r>
       <r>    4.5983   -0.0000 </r>
       <r>    6.7263   -0.0000 </r>
       <r>    6.8413   -0.0000 </r>
       <r>    7.5682   -0.0000 </r>
       <r>    8.0667   -0.0000 </r>
       <r>    9.3249    0.0000 </r>
      </set>
      <set comment="kpoint 28">
       <r>  -19.2890    1.0000 </r>
       <r>  -19.2878    1.0000 </r>
       <r>  -19.2693    1.0000 </r>
       <r>  -19.2572    1.0000 </r>
       <r>  -19.2515    1.0000 </r>
       <r>   -8.0238    1.0000 </r>
       <r>   -7.7111    1.0000 </r>
       <r>   -3.0161    1.0000 </r>
       <r>   -2.5745    1.0000 </r>
       <r>   -0.4095    1.0000 </r>
       <r>    0.1868    1.0000 </r>
       <r>    1.4794    1.0000 </r>
       <r>    1.7062    1.0000 </r>
       <r>    4.8326   -0.0000 </r>
       <r>    5.2107   -0.0000 </r>
       <r>    6.7722   -0.0000 </r>
       <r>    7.5945   -0.0000 </r>
       <r>    7.7859   -0.0000 </r>
       <r>    8.4262   -0.0000 </r>
       <r>    8.6407    0.0000 </r>
      </set>
      <set comment="kpoint 29">
       <r>  -19.2916    1.0000 </r>
       <r>  -19.2880    1.0000 </r>
       <r>  -19.2646    1.0000 </r>
       <r>  -19.2551    1.0000 </r>
       <r>  -19.2532    1.0000 </r>
       <r>   -7.7639    1.0000 </r>
       <r>   -7.5601    1.0000 </r>
       <r>   -3.2761    1.0000 </r>
       <r>   -3.0240    1.0000 </r>
       <r>   -0.3888    1.0000 </r>
       <r>    0.1311    1.0000 </r>
       <r>    1.0938    1.0000 </r>
       <r>    1.2224    1.0000 </r>
       <r>    4.8930   -0.0000 </r>
       <r>    5.3502   -0.0000 </r>
       <r>    6.6715   -0.0000 </r>
       <r>    7.3921   -0.0000 </r>
       <r>    7.9209   -0.0000 </r>
       <r>    8.5560    0.0000 </r>
       <r>    9.0686    0.0000 </r>
      </set>
      <set comment="kpoint 30">
       <r>  -19.2914    1.0000 </r>
       <r>  -19.2912    1.0000 </r>
       <r>  -19.2580    1.0000 </r>
       <r>  -19.2549    1.0000 </r>
       <r>  -19.2547    1.0000 </r>
       <r>   -7.5540    1.0000 </r>
       <r>   -7.3488    1.0000 </r>
       <r>   -3.3722    1.0000 </r>
       <r>   -3.3077    1.0000 </r>
       <r>   -0.3733    1.0000 </r>
       <r>   -0.1381    1.0000 </r>
       <r>    0.4302    1.0000 </r>
       <r>    0.5792    1.0000 </r>
       <r>    5.4376   -0.0000 </r>
       <r>    6.1178   -0.0000 </r>
       <r>    6.4268   -0.0000 </r>
       <r>    7.2428   -0.0000 </r>
       <r>    7.6973   -0.0000 </r>
       <r>    8.3681   -0.0000 </r>
       <r>    8.8223    0.0000 </r>
      </set>
     </set>
    </set>
   </array>
  </eigenvalues>
  <separator name="orbital magnetization" >
   <v name="MAGDIPOLOUT">      0.00000000      0.00000000      0.00000000</v>
  </separator>
  <dos>
   <i name="efermi">      3.08021763 </i>
   <total>
    <array>
     <dimension dim="1">gridpoints</dimension>
     <dimension dim="2">spin</dimension>
     <field>energy</field>
     <field>total</field>
     <field>integrated</field>
     <set>
      <set comment="spin 1">
       <r>   -21.2926     0.0000     0.0000 </r>
       <r>   -21.1786     0.0000     0.0000 </r>
       <r>   -21.0647     0.0000     0.0000 </r>
       <r>   -20.9508    -0.0000    -0.0000 </r>
       <r>   -20.8369    -0.0000    -0.0000 </r>
       <r>   -20.7229    -0.0000    -0.0000 </r>
       <r>   -20.6090    -0.0000    -0.0000 </r>
       <r>   -20.4951    -0.0000    -0.0000 </r>
       <r>   -20.3811    -0.0000    -0.0000 </r>
       <r>   -20.2672    -0.0000    -0.0000 </r>
       <r>   -20.1533    -0.0000    -0.0000 </r>
       <r>   -20.0394    -0.0000    -0.0000 </r>
       <r>   -19.9254    -0.0018    -0.0002 </r>
       <r>   -19.8115    -0.0403    -0.0048 </r>
       <r>   -19.6976    -0.4203    -0.0527 </r>
       <r>   -19.5837    -1.7135    -0.2479 </r>
       <r>   -19.4697     0.2155    -0.2234 </r>
       <r>   -19.3558    17.5934     1.7810 </r>
       <r>   -19.2419    38.9207     6.2151 </r>
       <r>   -19.1280    29.9248     9.6244 </r>
       <r>   -19.0140     6.2961    10.3417 </r>
       <r>   -18.9001    -1.8946    10.1258 </r>
       <r>   -18.7862    -0.9561    10.0169 </r>
       <r>   -18.6722    -0.1390    10.0011 </r>
       <r>   -18.5583    -0.0089    10.0000 </r>
       <r>   -18.4444    -0.0003    10.0000 </r>
       <r>   -18.3305    -0.0000    10.0000 </r>
       <r>   -18.2165    -0.0000    10.0000 </r>
       <r>   -18.1026    -0.0000    10.0000 </r>
       <r>   -17.9887    -0.0000    10.0000 </r>
       <r>   -17.8748     0.0000    10.0000 </r>
       <r>   -17.7608     0.0000    10.0000 </r>
       <r>   -17.6469     0.0000    10.0000 </r>
       <r>   -17.5330     0.0000    10.0000 </r>
       <r>   -17.4190     0.0000    10.0000 </r>
       <r>   -17.3051     0.0000    10.0000 </r>
       <r>   -17.1912     0.0000    10.0000 </r>
       <r>   -17.0773     0.0000    10.0000 </r>
       <r>   -16.9633     0.0000    10.0000 </r>
       <r>   -16.8494     0.0000    10.0000 </r>
       <r>   -16.7355     0.0000    10.0000 </r>
       <r>   -16.6216     0.0000    10.0000 </r>
       <r>   -16.5076     0.0000    10.0000 </r>
       <r>   -16.3937     0.0000    10.0000 </r>
       <r>   -16.2798     0.0000    10.0000 </r>
       <r>   -16.1659     0.0000    10.0000 </r>
       <r>   -16.0519     0.0000    10.0000 </r>
       <r>   -15.9380     0.0000    10.0000 </r>
       <r>   -15.8241     0.0000    10.0000 </r>
       <r>   -15.7101     0.0000    10.0000 </r>
       <r>   -15.5962     0.0000    10.0000 </r>
       <r>   -15.4823     0.0000    10.0000 </r>
       <r>   -15.3684     0.0000    10.0000 </r>
       <r>   -15.2544     0.0000    10.0000 </r>
       <r>   -15.1405     0.0000    10.0000 </r>
       <r>   -15.0266     0.0000    10.0000 </r>
       <r>   -14.9127     0.0000    10.0000 </r>
       <r>   -14.7987     0.0000    10.0000 </r>
       <r>   -14.6848     0.0000    10.0000 </r>
       <r>   -14.5709     0.0000    10.0000 </r>
       <r>   -14.4569     0.0000    10.0000 </r>
       <r>   -14.3430     0.0000    10.0000 </r>
       <r>   -14.2291     0.0000    10.0000 </r>
       <r>   -14.1152     0.0000    10.0000 </r>
       <r>   -14.0012     0.0000    10.0000 </r>
       <r>   -13.8873     0.0000    10.0000 </r>
       <r>   -13.7734     0.0000    10.0000 </r>
       <r>   -13.6595     0.0000    10.0000 </r>
       <r>   -13.5455     0.0000    10.0000 </r>
       <r>   -13.4316     0.0000    10.0000 </r>
       <r>   -13.3177     0.0000    10.0000 </r>
       <r>   -13.2038     0.0000    10.0000 </r>
       <r>   -13.0898     0.0000    10.0000 </r>
       <r>   -12.9759     0.0000    10.0000 </r>
       <r>   -12.8620     0.0000    10.0000 </r>
       <r>   -12.7480     0.0000    10.0000 </r>
       <r>   -12.6341     0.0000    10.0000 </r>
       <r>   -12.5202     0.0000    10.0000 </r>
       <r>   -12.4063     0.0000    10.0000 </r>
       <r>   -12.2923     0.0000    10.0000 </r>
       <r>   -12.1784     0.0000    10.0000 </r>
       <r>   -12.0645     0.0000    10.0000 </r>
       <r>   -11.9506     0.0000    10.0000 </r>
       <r>   -11.8366     0.0000    10.0000 </r>
       <r>   -11.7227     0.0000    10.0000 </r>
       <r>   -11.6088     0.0000    10.0000 </r>
       <r>   -11.4948     0.0000    10.0000 </r>
       <r>   -11.3809     0.0000    10.0000 </r>
       <r>   -11.2670     0.0000    10.0000 </r>
       <r>   -11.1531     0.0000    10.0000 </r>
       <r>   -11.0391     0.0000    10.0000 </r>
       <r>   -10.9252     0.0000    10.0000 </r>
       <r>   -10.8113    -0.0000    10.0000 </r>
       <r>   -10.6974    -0.0000    10.0000 </r>
       <r>   -10.5834    -0.0000    10.0000 </r>
       <r>   -10.4695    -0.0000    10.0000 </r>
       <r>   -10.3556    -0.0000    10.0000 </r>
       <r>   -10.2417    -0.0000    10.0000 </r>
       <r>   -10.1277    -0.0000    10.0000 </r>
       <r>   -10.0138    -0.0000    10.0000 </r>
       <r>    -9.8999    -0.0000    10.0000 </r>
       <r>    -9.7859    -0.0000    10.0000 </r>
       <r>    -9.6720    -0.0001    10.0000 </r>
       <r>    -9.5581    -0.0012     9.9999 </r>
       <r>    -9.4442    -0.0063     9.9991 </r>
       <r>    -9.3302    -0.0147     9.9975 </r>
       <r>    -9.2163     0.0149     9.9992 </r>
       <r>    -9.1024     0.1795    10.0196 </r>
       <r>    -8.9885     0.4685    10.0730 </r>
       <r>    -8.8745     0.6415    10.1461 </r>
       <r>    -8.7606     0.7128    10.2273 </r>
       <r>    -8.6467     1.0898    10.3514 </r>
       <r>    -8.5327     1.4423    10.5158 </r>
       <r>    -8.4188     1.2233    10.6551 </r>
       <r>    -8.3049     1.2700    10.7998 </r>
       <r>    -8.1910     2.0387    11.0321 </r>
       <r>    -8.0770     2.6543    11.3345 </r>
       <r>    -7.9631     2.8449    11.6586 </r>
       <r>    -7.8492     3.2228    12.0258 </r>
       <r>    -7.7353     3.8865    12.4685 </r>
       <r>    -7.6213     4.3682    12.9662 </r>
       <r>    -7.5074     4.2818    13.4540 </r>
       <r>    -7.3935     3.1745    13.8157 </r>
       <r>    -7.2796     1.4892    13.9853 </r>
       <r>    -7.1656     0.2852    14.0178 </r>
       <r>    -7.0517    -0.0864    14.0080 </r>
       <r>    -6.9378    -0.0576    14.0014 </r>
       <r>    -6.8238    -0.0114    14.0001 </r>
       <r>    -6.7099    -0.0010    14.0000 </r>
       <r>    -6.5960    -0.0000    14.0000 </r>
       <r>    -6.4821    -0.0000    14.0000 </r>
       <r>    -6.3681    -0.0000    14.0000 </r>
       <r>    -6.2542    -0.0000    14.0000 </r>
       <r>    -6.1403    -0.0000    14.0000 </r>
       <r>    -6.0264    -0.0000    14.0000 </r>
       <r>    -5.9124     0.0000    14.0000 </r>
       <r>    -5.7985     0.0000    14.0000 </r>
       <r>    -5.6846     0.0000    14.0000 </r>
       <r>    -5.5706     0.0000    14.0000 </r>
       <r>    -5.4567     0.0000    14.0000 </r>
       <r>    -5.3428     0.0000    14.0000 </r>
       <r>    -5.2289    -0.0000    14.0000 </r>
       <r>    -5.1149    -0.0000    14.0000 </r>
       <r>    -5.0010    -0.0000    14.0000 </r>
       <r>    -4.8871    -0.0000    14.0000 </r>
       <r>    -4.7732    -0.0000    14.0000 </r>
       <r>    -4.6592    -0.0000    14.0000 </r>
       <r>    -4.5453    -0.0000    14.0000 </r>
       <r>    -4.4314    -0.0000    14.0000 </r>
       <r>    -4.3175    -0.0000    14.0000 </r>
       <r>    -4.2035    -0.0000    14.0000 </r>
       <r>    -4.0896    -0.0001    14.0000 </r>
       <r>    -3.9757    -0.0021    13.9997 </r>
       <r>    -3.8617    -0.0177    13.9977 </r>
       <r>    -3.7478    -0.0702    13.9897 </r>
       <r>    -3.6339    -0.0823    13.9804 </r>
       <r>    -3.5200     0.3923    14.0251 </r>
       <r>    -3.4060     2.0922    14.2634 </r>
       <r>    -3.2921     4.4323    14.7684 </r>
       <r>    -3.1782     4.8874    15.3252 </r>
       <r>    -3.0643     3.4021    15.7128 </r>
       <r>    -2.9503     2.5467    16.0029 </r>
       <r>    -2.8364     2.5502    16.2934 </r>
       <r>    -2.7225     1.7890    16.4972 </r>
       <r>    -2.6085     0.8458    16.5936 </r>
       <r>    -2.4946     0.8928    16.6953 </r>
       <r>    -2.3807     1.1590    16.8274 </r>
       <r>    -2.2668     1.3457    16.9807 </r>
       <r>    -2.1528     1.5192    17.1538 </r>
       <r>    -2.0389     1.1168    17.2810 </r>
       <r>    -1.9250     0.4170    17.3285 </r>
       <r>    -1.8111     0.0508    17.3343 </r>
       <r>    -1.6971     0.0906    17.3446 </r>
       <r>    -1.5832     0.5145    17.4032 </r>
       <r>    -1.4693     0.8674    17.5020 </r>
       <r>    -1.3554     0.7492    17.5874 </r>
       <r>    -1.2414     0.5994    17.6557 </r>
       <r>    -1.1275     0.5503    17.7184 </r>
       <r>    -1.0136     0.3198    17.7548 </r>
       <r>    -0.8996     0.0746    17.7633 </r>
       <r>    -0.7857     0.0103    17.7645 </r>
       <r>    -0.6718     0.1001    17.7759 </r>
       <r>    -0.5579     0.3338    17.8139 </r>
       <r>    -0.4439     1.0544    17.9340 </r>
       <r>    -0.3300     2.3049    18.1966 </r>
       <r>    -0.2161     3.0851    18.5481 </r>
       <r>    -0.1022     2.7315    18.8593 </r>
       <r>     0.0118     2.3018    19.1215 </r>
       <r>     0.1257     2.5740    19.4148 </r>
       <r>     0.2396     2.7556    19.7287 </r>
       <r>     0.3536     2.8470    20.0531 </r>
       <r>     0.4675     3.0237    20.3976 </r>
       <r>     0.5814     3.3163    20.7754 </r>
       <r>     0.6953     3.7819    21.2062 </r>
       <r>     0.8093     3.7575    21.6343 </r>
       <r>     0.9232     3.4705    22.0297 </r>
       <r>     1.0371     3.5865    22.4383 </r>
       <r>     1.1510     3.8376    22.8755 </r>
       <r>     1.2650     3.1606    23.2356 </r>
       <r>     1.3789     1.8270    23.4437 </r>
       <r>     1.4928     1.1553    23.5754 </r>
       <r>     1.6067     1.4494    23.7405 </r>
       <r>     1.7207     2.3397    24.0070 </r>
       <r>     1.8346     3.2162    24.3735 </r>
       <r>     1.9485     3.1417    24.7314 </r>
       <r>     2.0625     1.9174    24.9498 </r>
       <r>     2.1764     1.0367    25.0679 </r>
       <r>     2.2903     1.0679    25.1896 </r>
       <r>     2.4042     1.1140    25.3165 </r>
       <r>     2.5182     1.1259    25.4448 </r>
       <r>     2.6321     1.4451    25.6094 </r>
       <r>     2.7460     1.5621    25.7874 </r>
       <r>     2.8599     1.0515    25.9072 </r>
       <r>     2.9739     0.4738    25.9611 </r>
       <r>     3.0878     0.3690    26.0032 </r>
       <r>     3.2017     0.4076    26.0496 </r>
       <r>     3.3157     0.1707    26.0691 </r>
       <r>     3.4296     0.0419    26.0738 </r>
       <r>     3.5435     0.4344    26.1233 </r>
       <r>     3.6574     0.8816    26.2238 </r>
       <r>     3.7714     0.7195    26.3057 </r>
       <r>     3.8853     0.4849    26.3610 </r>
       <r>     3.9992     0.7255    26.4436 </r>
       <r>     4.1131     1.0916    26.5680 </r>
       <r>     4.2271     1.3649    26.7235 </r>
       <r>     4.3410     1.7753    26.9257 </r>
       <r>     4.4549     2.4071    27.2000 </r>
       <r>     4.5688     3.2225    27.5671 </r>
       <r>     4.6828     3.3612    27.9500 </r>
       <r>     4.7967     2.8206    28.2714 </r>
       <r>     4.9106     2.4878    28.5548 </r>
       <r>     5.0246     2.2885    28.8155 </r>
       <r>     5.1385     2.4700    29.0969 </r>
       <r>     5.2524     2.9089    29.4283 </r>
       <r>     5.3663     3.1371    29.7857 </r>
       <r>     5.4803     2.5164    30.0724 </r>
       <r>     5.5942     1.3724    30.2288 </r>
       <r>     5.7081     1.1646    30.3614 </r>
       <r>     5.8220     1.7562    30.5615 </r>
       <r>     5.9360     2.1130    30.8022 </r>
       <r>     6.0499     2.0993    31.0414 </r>
       <r>     6.1638     1.6965    31.2347 </r>
       <r>     6.2778     1.1558    31.3664 </r>
       <r>     6.3917     1.1924    31.5022 </r>
       <r>     6.5056     1.4513    31.6676 </r>
       <r>     6.6195     2.0649    31.9028 </r>
       <r>     6.7335     3.5196    32.3038 </r>
       <r>     6.8474     4.6719    32.8360 </r>
       <r>     6.9613     4.2331    33.3183 </r>
       <r>     7.0752     2.9245    33.6515 </r>
       <r>     7.1892     2.3653    33.9209 </r>
       <r>     7.3031     2.5712    34.2139 </r>
       <r>     7.4170     3.0434    34.5606 </r>
       <r>     7.5309     3.5214    34.9618 </r>
       <r>     7.6449     3.0957    35.3145 </r>
       <r>     7.7588     1.9869    35.5408 </r>
       <r>     7.8727     2.1952    35.7909 </r>
       <r>     7.9867     3.5563    36.1961 </r>
       <r>     8.1006     4.0483    36.6573 </r>
       <r>     8.2145     3.4214    37.0471 </r>
       <r>     8.3284     2.8650    37.3735 </r>
       <r>     8.4424     3.1009    37.7268 </r>
       <r>     8.5563     3.4595    38.1209 </r>
       <r>     8.6702     2.4867    38.4042 </r>
       <r>     8.7841     1.3252    38.5552 </r>
       <r>     8.8981     1.3493    38.7089 </r>
       <r>     9.0120     1.4613    38.8754 </r>
       <r>     9.1259     1.0417    38.9941 </r>
       <r>     9.2399     0.7566    39.0803 </r>
       <r>     9.3538     1.0795    39.2032 </r>
       <r>     9.4677     1.4086    39.3637 </r>
       <r>     9.5816     1.3322    39.5155 </r>
       <r>     9.6956     1.0564    39.6358 </r>
       <r>     9.8095     0.5604    39.6997 </r>
       <r>     9.9234     0.2868    39.7324 </r>
       <r>    10.0373     0.4304    39.7814 </r>
       <r>    10.1513     0.4044    39.8275 </r>
       <r>    10.2652     0.3243    39.8644 </r>
       <r>    10.3791     0.4573    39.9165 </r>
       <r>    10.4931     0.3718    39.9589 </r>
       <r>    10.6070     0.0971    39.9699 </r>
       <r>    10.7209    -0.0050    39.9694 </r>
       <r>    10.8348     0.0692    39.9772 </r>
       <r>    10.9488     0.1293    39.9920 </r>
       <r>    11.0627     0.0730    40.0003 </r>
       <r>    11.1766     0.0059    40.0010 </r>
       <r>    11.2905    -0.0064    40.0002 </r>
       <r>    11.4045    -0.0019    40.0000 </r>
       <r>    11.5184    -0.0002    40.0000 </r>
       <r>    11.6323    -0.0000    40.0000 </r>
       <r>    11.7462    -0.0000    40.0000 </r>
       <r>    11.8602    -0.0000    40.0000 </r>
       <r>    11.9741    -0.0000    40.0000 </r>
       <r>    12.0880    -0.0000    40.0000 </r>
       <r>    12.2020    -0.0000    40.0000 </r>
       <r>    12.3159     0.0000    40.0000 </r>
       <r>    12.4298     0.0000    40.0000 </r>
       <r>    12.5437     0.0000    40.0000 </r>
       <r>    12.6577     0.0000    40.0000 </r>
       <r>    12.7716     0.0000    40.0000 </r>
       <r>    12.8855     0.0000    40.0000 </r>
      </set>
     </set>
    </array>
   </total>
  </dos>
 </calculation>
 <structure name="finalpos" >
  <crystal>
   <varray name="basis" >
    <v>       4.30014086       0.00000000       0.00000000 </v>
    <v>       0.00000000       4.30014086       0.00000000 </v>
    <v>       0.00000000       0.00000000       6.14586115 </v>
   </varray>
   <i name="volume">    113.64441771 </i>
   <varray name="rec_basis" >
    <v>       0.23255052       0.00000000       0.00000000 </v>
    <v>       0.00000000       0.23255052       0.00000000 </v>
    <v>       0.00000000       0.00000000       0.16271113 </v>
   </varray>
  </crystal>
  <varray name="positions" >
   <v>       0.50000000       0.00000000       0.72573602 </v>
   <v>       0.00000000       0.50000000       0.27426400 </v>
   <v>       0.00000000       0.00000000       0.00000000 </v>
   <v>       0.50000000       0.50000000       0.50000000 </v>
  </varray>
 </structure>
</modeling>
