   4   4   0   0
  0.2841110E+02  0.4300141E-09  0.4300141E-09  0.6145861E-09  0.5000000E-15
  1.000000000000000E-004
  CAR 
 Ga2BiAs                                 
     15.56823249    -23.21912592  301      2.85796089      1.00000000
    -23.219  0.0000E+00  0.0000E+00
    -23.090  0.0000E+00  0.0000E+00
    -22.961  0.0000E+00  0.0000E+00
    -22.831  0.0000E+00  0.0000E+00
    -22.702  0.0000E+00  0.0000E+00
    -22.573  0.0000E+00  0.0000E+00
    -22.443  0.0000E+00  0.0000E+00
    -22.314  0.0000E+00  0.0000E+00
    -22.185  0.0000E+00  0.0000E+00
    -22.056  0.0000E+00  0.0000E+00
    -21.926  0.0000E+00  0.0000E+00
    -21.797  0.0000E+00  0.0000E+00
    -21.668  0.1843E-07  0.2383E-08
    -21.538  0.2613E+00  0.3378E-01
    -21.409  0.5561E+02  0.7223E+01
    -21.280  0.2147E+02  0.1000E+02
    -21.150  0.3243E-02  0.1000E+02
    -21.021  0.3196E-11  0.1000E+02
    -20.892  0.0000E+00  0.1000E+02
    -20.763  0.0000E+00  0.1000E+02
    -20.633  0.0000E+00  0.1000E+02
    -20.504  0.0000E+00  0.1000E+02
    -20.375  0.0000E+00  0.1000E+02
    -20.245  0.0000E+00  0.1000E+02
    -20.116  0.0000E+00  0.1000E+02
    -19.987  0.0000E+00  0.1000E+02
    -19.858  0.0000E+00  0.1000E+02
    -19.728  0.0000E+00  0.1000E+02
    -19.599  0.0000E+00  0.1000E+02
    -19.470  0.0000E+00  0.1000E+02
    -19.340  0.0000E+00  0.1000E+02
    -19.211  0.0000E+00  0.1000E+02
    -19.082  0.0000E+00  0.1000E+02
    -18.953  0.0000E+00  0.1000E+02
    -18.823  0.0000E+00  0.1000E+02
    -18.694  0.0000E+00  0.1000E+02
    -18.565  0.0000E+00  0.1000E+02
    -18.435  0.0000E+00  0.1000E+02
    -18.306  0.0000E+00  0.1000E+02
    -18.177  0.0000E+00  0.1000E+02
    -18.047  0.0000E+00  0.1000E+02
    -17.918  0.0000E+00  0.1000E+02
    -17.789  0.0000E+00  0.1000E+02
    -17.660  0.0000E+00  0.1000E+02
    -17.530  0.0000E+00  0.1000E+02
    -17.401  0.0000E+00  0.1000E+02
    -17.272  0.0000E+00  0.1000E+02
    -17.142  0.0000E+00  0.1000E+02
    -17.013  0.0000E+00  0.1000E+02
    -16.884  0.0000E+00  0.1000E+02
    -16.755  0.0000E+00  0.1000E+02
    -16.625  0.0000E+00  0.1000E+02
    -16.496  0.0000E+00  0.1000E+02
    -16.367  0.0000E+00  0.1000E+02
    -16.237  0.0000E+00  0.1000E+02
    -16.108  0.0000E+00  0.1000E+02
    -15.979  0.0000E+00  0.1000E+02
    -15.850  0.0000E+00  0.1000E+02
    -15.720  0.0000E+00  0.1000E+02
    -15.591  0.0000E+00  0.1000E+02
    -15.462  0.0000E+00  0.1000E+02
    -15.332  0.0000E+00  0.1000E+02
    -15.203  0.0000E+00  0.1000E+02
    -15.074  0.0000E+00  0.1000E+02
    -14.944  0.0000E+00  0.1000E+02
    -14.815  0.0000E+00  0.1000E+02
    -14.686  0.0000E+00  0.1000E+02
    -14.557  0.0000E+00  0.1000E+02
    -14.427  0.0000E+00  0.1000E+02
    -14.298  0.0000E+00  0.1000E+02
    -14.169  0.0000E+00  0.1000E+02
    -14.039  0.0000E+00  0.1000E+02
    -13.910  0.0000E+00  0.1000E+02
    -13.781  0.0000E+00  0.1000E+02
    -13.652  0.0000E+00  0.1000E+02
    -13.522  0.0000E+00  0.1000E+02
    -13.393  0.0000E+00  0.1000E+02
    -13.264  0.0000E+00  0.1000E+02
    -13.134  0.0000E+00  0.1000E+02
    -13.005  0.0000E+00  0.1000E+02
    -12.876  0.0000E+00  0.1000E+02
    -12.747  0.0000E+00  0.1000E+02
    -12.617  0.0000E+00  0.1000E+02
    -12.488  0.0000E+00  0.1000E+02
    -12.359  0.0000E+00  0.1000E+02
    -12.229  0.0000E+00  0.1000E+02
    -12.100  0.0000E+00  0.1000E+02
    -11.971  0.0000E+00  0.1000E+02
    -11.842  0.0000E+00  0.1000E+02
    -11.712  0.0000E+00  0.1000E+02
    -11.583  0.0000E+00  0.1000E+02
    -11.454  0.0000E+00  0.1000E+02
    -11.324  0.0000E+00  0.1000E+02
    -11.195  0.0000E+00  0.1000E+02
    -11.066  0.0000E+00  0.1000E+02
    -10.936  0.1931E-09  0.1000E+02
    -10.807  0.1928E-02  0.1000E+02
    -10.678  0.1845E+00  0.1002E+02
    -10.549  0.2930E-01  0.1003E+02
    -10.419  0.8053E+00  0.1013E+02
    -10.290  0.4380E+00  0.1019E+02
    -10.161  0.1491E+01  0.1038E+02
    -10.031  0.9738E+00  0.1051E+02
     -9.902  0.1349E+01  0.1068E+02
     -9.773  0.9683E+00  0.1081E+02
     -9.644  0.9187E+00  0.1093E+02
     -9.514  0.2551E+01  0.1126E+02
     -9.385  0.3386E+01  0.1169E+02
     -9.256  0.1448E+01  0.1188E+02
     -9.126  0.2338E+01  0.1218E+02
     -8.997  0.4275E+01  0.1274E+02
     -8.868  0.3900E+01  0.1324E+02
     -8.739  0.1738E+01  0.1346E+02
     -8.609  0.2099E+01  0.1374E+02
     -8.480  0.2036E+01  0.1400E+02
     -8.351  0.7068E-02  0.1400E+02
     -8.221  0.2158E-09  0.1400E+02
     -8.092  0.0000E+00  0.1400E+02
     -7.963  0.0000E+00  0.1400E+02
     -7.833  0.0000E+00  0.1400E+02
     -7.704  0.0000E+00  0.1400E+02
     -7.575  0.0000E+00  0.1400E+02
     -7.446  0.0000E+00  0.1400E+02
     -7.316  0.0000E+00  0.1400E+02
     -7.187  0.0000E+00  0.1400E+02
     -7.058  0.0000E+00  0.1400E+02
     -6.928  0.0000E+00  0.1400E+02
     -6.799  0.0000E+00  0.1400E+02
     -6.670  0.0000E+00  0.1400E+02
     -6.541  0.0000E+00  0.1400E+02
     -6.411  0.0000E+00  0.1400E+02
     -6.282  0.0000E+00  0.1400E+02
     -6.153  0.0000E+00  0.1400E+02
     -6.023  0.0000E+00  0.1400E+02
     -5.894  0.0000E+00  0.1400E+02
     -5.765  0.0000E+00  0.1400E+02
     -5.636  0.0000E+00  0.1400E+02
     -5.506  0.0000E+00  0.1400E+02
     -5.377  0.0000E+00  0.1400E+02
     -5.248  0.0000E+00  0.1400E+02
     -5.118  0.0000E+00  0.1400E+02
     -4.989  0.0000E+00  0.1400E+02
     -4.860  0.0000E+00  0.1400E+02
     -4.730  0.8875E-09  0.1400E+02
     -4.601  0.3970E-02  0.1400E+02
     -4.472  0.7383E+00  0.1410E+02
     -4.343  0.2601E+01  0.1443E+02
     -4.213  0.2671E+01  0.1478E+02
     -4.084  0.6187E+01  0.1558E+02
     -3.955  0.1901E+01  0.1582E+02
     -3.825  0.1571E+00  0.1584E+02
     -3.696  0.1528E+01  0.1604E+02
     -3.567  0.3635E+01  0.1651E+02
     -3.438  0.2931E+01  0.1689E+02
     -3.308  0.1546E+00  0.1691E+02
     -3.179  0.3789E+00  0.1696E+02
     -3.050  0.5564E+00  0.1703E+02
     -2.920  0.1099E+01  0.1717E+02
     -2.791  0.1113E-02  0.1717E+02
     -2.662  0.3871E+00  0.1722E+02
     -2.533  0.4377E+00  0.1728E+02
     -2.403  0.5233E+00  0.1735E+02
     -2.274  0.1126E+01  0.1749E+02
     -2.145  0.1211E-02  0.1749E+02
     -2.015  0.1200E-02  0.1749E+02
     -1.886  0.1124E+01  0.1764E+02
     -1.757  0.5247E+00  0.1771E+02
     -1.627  0.2999E-04  0.1771E+02
     -1.498  0.5154E-01  0.1771E+02
     -1.369  0.7595E+00  0.1781E+02
     -1.240  0.1484E-01  0.1781E+02
     -1.110  0.1062E+01  0.1795E+02
     -0.981  0.2095E+01  0.1822E+02
     -0.852  0.7344E+00  0.1832E+02
     -0.722  0.5671E+01  0.1905E+02
     -0.593  0.2392E+01  0.1936E+02
     -0.464  0.1303E+01  0.1953E+02
     -0.335  0.3565E+00  0.1957E+02
     -0.205  0.9055E+00  0.1969E+02
     -0.076  0.4113E+01  0.2022E+02
      0.053  0.2315E+01  0.2052E+02
      0.183  0.7081E+01  0.2144E+02
      0.312  0.5594E+01  0.2216E+02
      0.441  0.3459E+01  0.2261E+02
      0.570  0.2863E+00  0.2264E+02
      0.700  0.1915E+01  0.2289E+02
      0.829  0.3247E+00  0.2293E+02
      0.958  0.3411E+01  0.2338E+02
      1.088  0.4099E+01  0.2391E+02
      1.217  0.2382E+01  0.2421E+02
      1.346  0.5189E+00  0.2428E+02
      1.475  0.2008E+01  0.2454E+02
      1.605  0.7679E+00  0.2464E+02
      1.734  0.7945E+00  0.2474E+02
      1.863  0.1664E+01  0.2496E+02
      1.993  0.1817E+01  0.2519E+02
      2.122  0.1921E+01  0.2544E+02
      2.251  0.1369E+01  0.2562E+02
      2.381  0.1710E+01  0.2584E+02
      2.510  0.1965E-01  0.2584E+02
      2.639  0.2068E+00  0.2587E+02
      2.768  0.7697E+00  0.2597E+02
      2.898  0.4063E+00  0.2602E+02
      3.027  0.5384E-01  0.2603E+02
      3.156  0.3600E-06  0.2603E+02
      3.286  0.3565E-06  0.2603E+02
      3.415  0.1339E+00  0.2604E+02
      3.544  0.1496E+01  0.2624E+02
      3.673  0.1967E-01  0.2624E+02
      3.803  0.2979E-06  0.2624E+02
      3.932  0.8069E-01  0.2625E+02
      4.061  0.1805E+01  0.2648E+02
      4.191  0.9592E+00  0.2661E+02
      4.320  0.9542E+00  0.2673E+02
      4.449  0.1199E+00  0.2675E+02
      4.578  0.1116E+01  0.2689E+02
      4.708  0.2386E+01  0.2720E+02
      4.837  0.1773E+00  0.2722E+02
      4.966  0.6148E+01  0.2802E+02
      5.096  0.4399E+01  0.2859E+02
      5.225  0.4724E+01  0.2920E+02
      5.354  0.1020E+01  0.2933E+02
      5.484  0.1374E+01  0.2951E+02
      5.613  0.5572E+00  0.2958E+02
      5.742  0.2195E+01  0.2986E+02
      5.871  0.3723E-01  0.2987E+02
      6.001  0.1933E+01  0.3012E+02
      6.130  0.1773E+01  0.3035E+02
      6.259  0.3675E+00  0.3039E+02
      6.389  0.3667E+01  0.3087E+02
      6.518  0.2214E+01  0.3115E+02
      6.647  0.1638E+01  0.3137E+02
      6.776  0.5224E+00  0.3143E+02
      6.906  0.3849E+01  0.3193E+02
      7.035  0.5719E+01  0.3267E+02
      7.164  0.1865E+01  0.3291E+02
      7.294  0.1569E+01  0.3311E+02
      7.423  0.2917E+01  0.3349E+02
      7.552  0.4228E+01  0.3404E+02
      7.681  0.4152E+01  0.3458E+02
      7.811  0.3094E+01  0.3498E+02
      7.940  0.9761E+00  0.3510E+02
      8.069  0.1809E+01  0.3534E+02
      8.199  0.2339E+01  0.3564E+02
      8.328  0.3763E+01  0.3612E+02
      8.457  0.1633E+01  0.3634E+02
      8.587  0.2962E+01  0.3672E+02
      8.716  0.1531E+01  0.3692E+02
      8.845  0.1693E+01  0.3713E+02
      8.974  0.3963E+01  0.3765E+02
      9.104  0.2723E+01  0.3800E+02
      9.233  0.7702E+00  0.3810E+02
      9.362  0.1019E+01  0.3823E+02
      9.492  0.2672E+01  0.3858E+02
      9.621  0.2290E+01  0.3887E+02
      9.750  0.2196E+00  0.3890E+02
      9.879  0.1477E+01  0.3909E+02
     10.009  0.3537E+00  0.3914E+02
     10.138  0.1166E+01  0.3929E+02
     10.267  0.5570E+00  0.3936E+02
     10.397  0.1503E-01  0.3936E+02
     10.526  0.1746E+01  0.3959E+02
     10.655  0.2265E+01  0.3988E+02
     10.784  0.9888E-01  0.3989E+02
     10.914  0.4480E-06  0.3989E+02
     11.043  0.0000E+00  0.3989E+02
     11.172  0.1035E-08  0.3989E+02
     11.302  0.8756E-02  0.3989E+02
     11.431  0.7436E+00  0.3999E+02
     11.560  0.7263E-01  0.4000E+02
     11.689  0.2247E-06  0.4000E+02
     11.819  0.0000E+00  0.4000E+02
     11.948  0.0000E+00  0.4000E+02
     12.077  0.0000E+00  0.4000E+02
     12.207  0.0000E+00  0.4000E+02
     12.336  0.0000E+00  0.4000E+02
     12.465  0.0000E+00  0.4000E+02
     12.595  0.0000E+00  0.4000E+02
     12.724  0.0000E+00  0.4000E+02
     12.853  0.0000E+00  0.4000E+02
     12.982  0.0000E+00  0.4000E+02
     13.112  0.0000E+00  0.4000E+02
     13.241  0.0000E+00  0.4000E+02
     13.370  0.0000E+00  0.4000E+02
     13.500  0.0000E+00  0.4000E+02
     13.629  0.0000E+00  0.4000E+02
     13.758  0.0000E+00  0.4000E+02
     13.887  0.0000E+00  0.4000E+02
     14.017  0.0000E+00  0.4000E+02
     14.146  0.0000E+00  0.4000E+02
     14.275  0.0000E+00  0.4000E+02
     14.405  0.0000E+00  0.4000E+02
     14.534  0.0000E+00  0.4000E+02
     14.663  0.0000E+00  0.4000E+02
     14.792  0.0000E+00  0.4000E+02
     14.922  0.0000E+00  0.4000E+02
     15.051  0.0000E+00  0.4000E+02
     15.180  0.0000E+00  0.4000E+02
     15.310  0.0000E+00  0.4000E+02
     15.439  0.0000E+00  0.4000E+02
     15.568  0.0000E+00  0.4000E+02
