    4    4    1    1
  0.2841110E+02  0.4300141E-09  0.4300141E-09  0.6145861E-09  0.5000000E-15
  1.000000000000000E-004
  CAR 
 Ga2BiAs                                 
     26     84     20
 
  0.0000000E+00  0.0000000E+00  0.0000000E+00  0.1333333E-01
    1      -21.456022   1.000000
    2      -21.444318   1.000000
    3      -21.444278   1.000000
    4      -21.422193   1.000000
    5      -21.403211   1.000000
    6      -10.724030   1.000000
    7       -8.704218   1.000000
    8       -4.526970   1.000000
    9       -0.145355   1.000000
   10       -0.145337   1.000000
   11        2.005480   1.000000
   12        2.574067   1.000000
   13        2.857878   0.502751
   14        2.858036   0.497338
   15        4.323856   0.000000
   16        4.570258   0.000000
   17        6.493497   0.000000
   18        6.493503   0.000000
   19        6.668501   0.000000
   20        9.351207   0.000000
 
  0.2000000E+00  0.0000000E+00  0.0000000E+00  0.5333333E-01
    1      -21.452798   1.000000
    2      -21.445553   1.000000
    3      -21.444073   1.000000
    4      -21.420396   1.000000
    5      -21.404840   1.000000
    6      -10.468259   1.000000
    7       -8.706762   1.000000
    8       -4.416310   1.000000
    9       -1.131003   1.000000
   10       -0.086409   1.000000
   11        0.083036   1.000000
   12        1.698707   1.000000
   13        2.713600   0.999978
   14        3.977994   0.000000
   15        4.900296   0.000000
   16        6.301099   0.000000
   17        6.569011   0.000000
   18        6.782081   0.000000
   19        7.950069   0.000000
   20       10.612083   0.000000
 
  0.4000000E+00  0.0000000E+00  0.0000000E+00  0.5333333E-01
    1      -21.455453   1.000000
    2      -21.443658   1.000000
    3      -21.441329   1.000000
    4      -21.415868   1.000000
    5      -21.407471   1.000000
    6       -9.804371   1.000000
    7       -8.989485   1.000000
    8       -3.994072   1.000000
    9       -2.659101   1.000000
   10       -1.014778   1.000000
   11        0.067561   1.000000
   12        0.590124   1.000000
   13        2.303451   1.000000
   14        4.597551   0.000000
   15        5.644410   0.000000
   16        7.349642   0.000000
   17        7.676800   0.000000
   18        7.980629   0.000000
   19        9.012413   0.000000
   20        9.229006   0.000000
 
  0.2000000E+00  0.2000000E+00  0.0000000E+00  0.5333333E-01
    1      -21.451468   1.000000
    2      -21.448294   1.000000
    3      -21.439636   1.000000
    4      -21.419346   1.000000
    5      -21.406533   1.000000
    6      -10.218021   1.000000
    7       -8.663800   1.000000
    8       -4.379939   1.000000
    9       -1.443957   1.000000
   10       -0.834428   1.000000
   11       -0.237521   1.000000
   12        1.350852   1.000000
   13        1.524635   1.000000
   14        4.944375   0.000000
   15        5.462719   0.000000
   16        6.464071   0.000000
   17        6.895850   0.000000
   18        8.341316   0.000000
   19        8.783004   0.000000
   20        9.243509   0.000000
 
  0.4000000E+00  0.2000000E+00  0.0000000E+00  0.1066667E+00
    1      -21.455102   1.000000
    2      -21.448776   1.000000
    3      -21.432491   1.000000
    4      -21.415829   1.000000
    5      -21.409302   1.000000
    6       -9.583229   1.000000
    7       -8.825205   1.000000
    8       -4.146989   1.000000
    9       -3.034468   1.000000
   10       -0.821797   1.000000
   11       -0.119284   1.000000
   12        0.198375   1.000000
   13        1.065789   1.000000
   14        5.215053   0.000000
   15        5.668972   0.000000
   16        6.509684   0.000000
   17        6.929833   0.000000
   18        7.778042   0.000000
   19        8.848432   0.000000
   20        9.796185   0.000000
 
  0.4000000E+00  0.4000000E+00  0.0000000E+00  0.5333333E-01
    1      -21.454678   1.000000
    2      -21.454401   1.000000
    3      -21.421199   1.000000
    4      -21.415196   1.000000
    5      -21.412268   1.000000
    6       -9.096065   1.000000
    7       -8.571654   1.000000
    8       -4.481032   1.000000
    9       -4.025607   1.000000
   10       -0.470207   1.000000
   11       -0.180658   1.000000
   12        0.174118   1.000000
   13        0.380455   1.000000
   14        4.236457   0.000000
   15        4.609721   0.000000
   16        5.117003   0.000000
   17        5.438082   0.000000
   18       10.556525   0.000000
   19       10.565764   0.000000
   20       11.383080   0.000000
 
  0.0000000E+00  0.0000000E+00  0.3333333E+00  0.2666667E-01
    1      -21.456042   1.000000
    2      -21.444344   1.000000
    3      -21.444305   1.000000
    4      -21.421993   1.000000
    5      -21.403241   1.000000
    6      -10.381307   1.000000
    7       -9.406421   1.000000
    8       -3.254986   1.000000
    9       -0.691086   1.000000
   10        0.164007   1.000000
   11        0.164021   1.000000
   12        2.004623   1.000000
   13        2.004721   1.000000
   14        4.171911   0.000000
   15        4.986703   0.000000
   16        5.310163   0.000000
   17        6.043795   0.000000
   18        7.957553   0.000000
   19        7.957565   0.000000
   20        9.976208   0.000000
 
  0.2000000E+00  0.0000000E+00  0.3333333E+00  0.1066667E+00
    1      -21.452855   1.000000
    2      -21.445587   1.000000
    3      -21.444096   1.000000
    4      -21.420206   1.000000
    5      -21.404843   1.000000
    6      -10.155277   1.000000
    7       -9.273113   1.000000
    8       -3.598405   1.000000
    9       -1.902813   1.000000
   10       -0.085180   1.000000
   11        0.336463   1.000000
   12        1.789969   1.000000
   13        2.110532   1.000000
   14        4.047970   0.000000
   15        5.094935   0.000000
   16        6.332937   0.000000
   17        7.201177   0.000000
   18        7.709506   0.000000
   19        8.198586   0.000000
   20        8.991180   0.000000
 
  0.4000000E+00  0.0000000E+00  0.3333333E+00  0.1066667E+00
    1      -21.455575   1.000000
    2      -21.443693   1.000000
    3      -21.441318   1.000000
    4      -21.415724   1.000000
    5      -21.407473   1.000000
    6       -9.636385   1.000000
    7       -9.123886   1.000000
    8       -4.215833   1.000000
    9       -3.487922   1.000000
   10        0.242366   1.000000
   11        0.668919   1.000000
   12        1.393593   1.000000
   13        2.258297   1.000000
   14        3.464263   0.000000
   15        4.591063   0.000000
   16        7.042589   0.000000
   17        7.434626   0.000000
   18        7.617967   0.000000
   19        8.149361   0.000000
   20       10.480103   0.000000
 
  0.2000000E+00  0.2000000E+00  0.3333333E+00  0.1066667E+00
    1      -21.451534   1.000000
    2      -21.448351   1.000000
    3      -21.439649   1.000000
    4      -21.419157   1.000000
    5      -21.406524   1.000000
    6       -9.934314   1.000000
    7       -9.128794   1.000000
    8       -3.750903   1.000000
    9       -2.386421   1.000000
   10       -0.741409   1.000000
   11        0.243384   1.000000
   12        0.923003   1.000000
   13        1.954702   1.000000
   14        4.899278   0.000000
   15        5.974343   0.000000
   16        6.892584   0.000000
   17        7.025632   0.000000
   18        7.344383   0.000000
   19        8.314472   0.000000
   20        8.669534   0.000000
 
  0.4000000E+00  0.2000000E+00  0.3333333E+00  0.2133333E+00
    1      -21.455192   1.000000
    2      -21.448818   1.000000
    3      -21.432491   1.000000
    4      -21.415673   1.000000
    5      -21.409294   1.000000
    6       -9.439773   1.000000
    7       -8.936227   1.000000
    8       -4.187179   1.000000
    9       -3.581436   1.000000
   10       -0.749036   1.000000
   11        0.119430   1.000000
   12        0.948019   1.000000
   13        1.095469   1.000000
   14        4.907337   0.000000
   15        5.112354   0.000000
   16        6.912225   0.000000
   17        7.505355   0.000000
   18        8.502878   0.000000
   19        8.952764   0.000000
   20        9.465168   0.000000
 
  0.4000000E+00  0.4000000E+00  0.3333333E+00  0.1066667E+00
    1      -21.454738   1.000000
    2      -21.454461   1.000000
    3      -21.421196   1.000000
    4      -21.415026   1.000000
    5      -21.412235   1.000000
    6       -9.043759   1.000000
    7       -8.582177   1.000000
    8       -4.341112   1.000000
    9       -4.111771   1.000000
   10       -1.089979   1.000000
   11       -0.592849   1.000000
   12        0.065769   1.000000
   13        0.345225   1.000000
   14        5.031289   0.000000
   15        6.012069   0.000000
   16        6.297043   0.000000
   17        7.601022   0.000000
   18        8.285933   0.000000
   19        9.557562   0.000000
   20       10.123189   0.000000
 
  0.5000000E+00  0.5000000E+00  0.0000000E+00  0.0000000E+00
    1      -21.455427   1.000000
    2      -21.455388   1.000000
    3      -21.417845   1.000000
    4      -21.414529   1.000000
    5      -21.413283   1.000000
    6       -8.901040   1.000000
    7       -8.454496   1.000000
    8       -4.535495   1.000000
    9       -4.535457   1.000000
   10       -0.310427   1.000000
   11        0.015958   1.000000
   12        0.015990   1.000000
   13        0.370164   1.000000
   14        4.000009   0.000000
   15        4.417063   0.000000
   16        4.417069   0.000000
   17        4.853660   0.000000
   18       11.701441   0.000000
   19       11.809022   0.000000
   20       12.707632   0.000000
 
  0.4857143E+00  0.4857143E+00  0.0000000E+00  0.0000000E+00
    1      -21.455402   1.000000
    2      -21.455365   1.000000
    3      -21.417915   1.000000
    4      -21.414532   1.000000
    5      -21.413261   1.000000
    6       -8.904318   1.000000
    7       -8.458500   1.000000
    8       -4.534252   1.000000
    9       -4.524109   1.000000
   10       -0.312867   1.000000
   11        0.010949   1.000000
   12        0.019217   1.000000
   13        0.368052   1.000000
   14        4.008793   0.000000
   15        4.415822   0.000000
   16        4.432875   0.000000
   17        4.868034   0.000000
   18       11.667497   0.000000
   19       11.857039   0.000000
   20       12.591554   0.000000
 
  0.4714286E+00  0.4714286E+00  0.0000000E+00  0.0000000E+00
    1      -21.455342   1.000000
    2      -21.455316   1.000000
    3      -21.418128   1.000000
    4      -21.414573   1.000000
    5      -21.413193   1.000000
    6       -8.914409   1.000000
    7       -8.469984   1.000000
    8       -4.530605   1.000000
    9       -4.490298   1.000000
   10       -0.320546   1.000000
   11       -0.003831   1.000000
   12        0.028946   1.000000
   13        0.362527   1.000000
   14        4.034122   0.000000
   15        4.414193   0.000000
   16        4.479836   0.000000
   17        4.909727   0.000000
   18       11.574552   0.000000
   19       11.851018   0.000000
   20       13.805171   0.000000
 
  0.4571429E+00  0.4571429E+00  0.0000000E+00  0.0000000E+00
    1      -21.455261   1.000000
    2      -21.455228   1.000000
    3      -21.418473   1.000000
    4      -21.414641   1.000000
    5      -21.413083   1.000000
    6       -8.932034   1.000000
    7       -8.487442   1.000000
    8       -4.524621   1.000000
    9       -4.434860   1.000000
   10       -0.334422   1.000000
   11       -0.027498   1.000000
   12        0.045148   1.000000
   13        0.355860   1.000000
   14        4.072755   0.000000
   15        4.417502   0.000000
   16        4.556632   0.000000
   17        4.975638   0.000000
   18       11.402866   0.000000
   19       11.538200   0.000000
   20       12.785373   0.000000
 
  0.4428571E+00  0.4428571E+00  0.0000000E+00  0.0000000E+00
    1      -21.455156   1.000000
    2      -21.455083   1.000000
    3      -21.418961   1.000000
    4      -21.414739   1.000000
    5      -21.412943   1.000000
    6       -8.958228   1.000000
    7       -8.508650   1.000000
    8       -4.516443   1.000000
    9       -4.359049   1.000000
   10       -0.355737   1.000000
   11       -0.058728   1.000000
   12        0.067798   1.000000
   13        0.351267   1.000000
   14        4.118901   0.000000
   15        4.432831   0.000000
   16        4.661270   0.000000
   17        5.062889   0.000000
   18       11.236514   0.000000
   19       11.716661   0.000000
   20       12.320793   0.000000
 
  0.4285714E+00  0.4285714E+00  0.0000000E+00  0.0000000E+00
    1      -21.455030   1.000000
    2      -21.454902   1.000000
    3      -21.419585   1.000000
    4      -21.414876   1.000000
    5      -21.412764   1.000000
    6       -8.994018   1.000000
    7       -8.531110   1.000000
    8       -4.506272   1.000000
    9       -4.264418   1.000000
   10       -0.385501   1.000000
   11       -0.095878   1.000000
   12        0.096870   1.000000
   13        0.352147   1.000000
   14        4.164769   0.000000
   15        4.467812   0.000000
   16        4.791320   0.000000
   17        5.169609   0.000000
   18       11.013464   0.000000
   19       11.078884   0.000000
   20       11.596268   0.000000
 
  0.4142857E+00  0.4142857E+00  0.0000000E+00  0.0000000E+00
    1      -21.454871   1.000000
    2      -21.454672   1.000000
    3      -21.420342   1.000000
    4      -21.415025   1.000000
    5      -21.412539   1.000000
    6       -9.040013   1.000000
    7       -8.552608   1.000000
    8       -4.494365   1.000000
    9       -4.152695   1.000000
   10       -0.423974   1.000000
   11       -0.137189   1.000000
   12        0.132322   1.000000
   13        0.361284   1.000000
   14        4.204124   0.000000
   15        4.527339   0.000000
   16        4.944183   0.000000
   17        5.294858   0.000000
   18       10.796527   0.000000
   19       10.825090   0.000000
   20       11.593269   0.000000
 
  0.4000000E+00  0.4000000E+00  0.0000000E+00  0.0000000E+00
    1      -21.454678   1.000000
    2      -21.454401   1.000000
    3      -21.421199   1.000000
    4      -21.415196   1.000000
    5      -21.412268   1.000000
    6       -9.096065   1.000000
    7       -8.571654   1.000000
    8       -4.481032   1.000000
    9       -4.025607   1.000000
   10       -0.470207   1.000000
   11       -0.180658   1.000000
   12        0.174118   1.000000
   13        0.380455   1.000000
   14        4.236457   0.000000
   15        4.609721   0.000000
   16        5.117003   0.000000
   17        5.438082   0.000000
   18       10.557452   0.000000
   19       10.572946   0.000000
   20       12.513167   0.000000
 
  0.3857143E+00  0.3857143E+00  0.0000000E+00  0.0000000E+00
    1      -21.454473   1.000000
    2      -21.454099   1.000000
    3      -21.422182   1.000000
    4      -21.415398   1.000000
    5      -21.411976   1.000000
    6       -9.161243   1.000000
    7       -8.587630   1.000000
    8       -4.466642   1.000000
    9       -3.884914   1.000000
   10       -0.522523   1.000000
   11       -0.224688   1.000000
   12        0.222185   1.000000
   13        0.410199   1.000000
   14        4.265577   0.000000
   15        4.708820   0.000000
   16        5.307306   0.000000
   17        5.599108   0.000000
   18       10.277671   0.000000
   19       10.323129   0.000000
   20       11.118493   0.000000
 
  0.3714286E+00  0.3714286E+00  0.0000000E+00  0.0000000E+00
    1      -21.454237   1.000000
    2      -21.453770   1.000000
    3      -21.423264   1.000000
    4      -21.415616   1.000000
    5      -21.411639   1.000000
    6       -9.234051   1.000000
    7       -8.600578   1.000000
    8       -4.451607   1.000000
    9       -3.732197   1.000000
   10       -0.578395   1.000000
   11       -0.267418   1.000000
   12        0.276464   1.000000
   13        0.450410   1.000000
   14        4.295344   0.000000
   15        4.818154   0.000000
   16        5.512280   0.000000
   17        5.777423   0.000000
   18        9.993326   0.000000
   19       10.174426   0.000000
   20       11.076446   0.000000
 
  0.3571429E+00  0.3571429E+00  0.0000000E+00  0.0000000E+00
    1      -21.453992   1.000000
    2      -21.453408   1.000000
    3      -21.424435   1.000000
    4      -21.415857   1.000000
    5      -21.411286   1.000000
    6       -9.312789   1.000000
    7       -8.610915   1.000000
    8       -4.436381   1.000000
    9       -3.568987   1.000000
   10       -0.635357   1.000000
   11       -0.307449   1.000000
   12        0.336856   1.000000
   13        0.500470   1.000000
   14        4.328322   0.000000
   15        4.932725   0.000000
   16        5.729370   0.000000
   17        5.972480   0.000000
   18        9.705993   0.000000
   19        9.817842   0.000000
   20       10.922813   0.000000
 
  0.3428571E+00  0.3428571E+00  0.0000000E+00  0.0000000E+00
    1      -21.453736   1.000000
    2      -21.453015   1.000000
    3      -21.425703   1.000000
    4      -21.416123   1.000000
    5      -21.410908   1.000000
    6       -9.395781   1.000000
    7       -8.619171   1.000000
    8       -4.421453   1.000000
    9       -3.396654   1.000000
   10       -0.690920   1.000000
   11       -0.343358   1.000000
   12        0.403249   1.000000
   13        0.559679   1.000000
   14        4.365935   0.000000
   15        5.048546   0.000000
   16        5.955608   0.000000
   17        6.183319   0.000000
   18        9.418709   0.000000
   19        9.560395   0.000000
   20       10.648817   0.000000
 
  0.3285714E+00  0.3285714E+00  0.0000000E+00  0.0000000E+00
    1      -21.453465   1.000000
    2      -21.452597   1.000000
    3      -21.427028   1.000000
    4      -21.416407   1.000000
    5      -21.410509   1.000000
    6       -9.481522   1.000000
    7       -8.625859   1.000000
    8       -4.407324   1.000000
    9       -3.216465   1.000000
   10       -0.742877   1.000000
   11       -0.373915   1.000000
   12        0.475507   1.000000
   13        0.627332   1.000000
   14        4.408915   0.000000
   15        5.162140   0.000000
   16        6.187428   0.000000
   17        6.408715   0.000000
   18        9.133697   0.000000
   19        9.304317   0.000000
   20       10.519117   0.000000
 
  0.3142857E+00  0.3142857E+00  0.0000000E+00  0.0000000E+00
    1      -21.453189   1.000000
    2      -21.452162   1.000000
    3      -21.428415   1.000000
    4      -21.416701   1.000000
    5      -21.410086   1.000000
    6       -9.568715   1.000000
    7       -8.631414   1.000000
    8       -4.394495   1.000000
    9       -3.029604   1.000000
   10       -0.789326   1.000000
   11       -0.398018   1.000000
   12        0.553468   1.000000
   13        0.702787   1.000000
   14        4.457572   0.000000
   15        5.270018   0.000000
   16        6.419839   0.000000
   17        6.647142   0.000000
   18        8.853403   0.000000
   19        9.054573   0.000000
   20       10.117220   0.000000
 
  0.3000000E+00  0.3000000E+00  0.0000000E+00  0.0000000E+00
    1      -21.452910   1.000000
    2      -21.451706   1.000000
    3      -21.429839   1.000000
    4      -21.417007   1.000000
    5      -21.409651   1.000000
    6       -9.656263   1.000000
    7       -8.636192   1.000000
    8       -4.383443   1.000000
    9       -2.837198   1.000000
   10       -0.828673   1.000000
   11       -0.414666   1.000000
   12        0.636936   1.000000
   13        0.785469   1.000000
   14        4.511924   0.000000
   15        5.368302   0.000000
   16        6.644780   0.000000
   17        6.896625   0.000000
   18        8.580456   0.000000
   19        8.819692   0.000000
   20       10.152855   0.000000
 
  0.2857143E+00  0.2857143E+00  0.0000000E+00  0.0000000E+00
    1      -21.452634   1.000000
    2      -21.451237   1.000000
    3      -21.431298   1.000000
    4      -21.417330   1.000000
    5      -21.409206   1.000000
    6       -9.743251   1.000000
    7       -8.640466   1.000000
    8       -4.374596   1.000000
    9       -2.640364   1.000000
   10       -0.859634   1.000000
   11       -0.422926   1.000000
   12        0.725684   1.000000
   13        0.874855   1.000000
   14        4.571739   0.000000
   15        5.452499   0.000000
   16        6.847613   0.000000
   17        7.154020   0.000000
   18        8.318531   0.000000
   19        8.612219   0.000000
   20        9.750286   0.000000
 
  0.2714286E+00  0.2714286E+00  0.0000000E+00  0.0000000E+00
    1      -21.452363   1.000000
    2      -21.450755   1.000000
    3      -21.432770   1.000000
    4      -21.417658   1.000000
    5      -21.408755   1.000000
    6       -9.828911   1.000000
    7       -8.644444   1.000000
    8       -4.368305   1.000000
    9       -2.440257   1.000000
   10       -0.881220   1.000000
   11       -0.421882   1.000000
   12        0.819447   1.000000
   13        0.970461   1.000000
   14        4.636499   0.000000
   15        5.517513   0.000000
   16        7.001097   0.000000
   17        7.410861   0.000000
   18        8.076364   0.000000
   19        8.470011   0.000000
   20        9.731842   0.000000
 
  0.2571429E+00  0.2571429E+00  0.0000000E+00  0.0000000E+00
    1      -21.452108   1.000000
    2      -21.450264   1.000000
    3      -21.434234   1.000000
    4      -21.417992   1.000000
    5      -21.408301   1.000000
    6       -9.912600   1.000000
    7       -8.648279   1.000000
    8       -4.364827   1.000000
    9       -2.238142   1.000000
   10       -0.892739   1.000000
   11       -0.410579   1.000000
   12        0.917919   1.000000
   13        1.071814   1.000000
   14        4.705256   0.000000
   15        5.558091   0.000000
   16        7.064673   0.000000
   17        7.606869   0.000000
   18        7.913785   0.000000
   19        8.401202   0.000000
   20        9.395435   0.000000
 
  0.2428571E+00  0.2428571E+00  0.0000000E+00  0.0000000E+00
    1      -21.451875   1.000000
    2      -21.449769   1.000000
    3      -21.435675   1.000000
    4      -21.418331   1.000000
    5      -21.407848   1.000000
    6       -9.993778   1.000000
    7       -8.652078   1.000000
    8       -4.364301   1.000000
    9       -2.035472   1.000000
   10       -0.893790   1.000000
   11       -0.387947   1.000000
   12        1.020743   1.000000
   13        1.178435   1.000000
   14        4.776276   0.000000
   15        5.569990   0.000000
   16        7.014061   0.000000
   17        7.513672   0.000000
   18        8.057916   0.000000
   19        8.450745   0.000000
   20        9.244113   0.000000
 
  0.2285714E+00  0.2285714E+00  0.0000000E+00  0.0000000E+00
    1      -21.451685   1.000000
    2      -21.449275   1.000000
    3      -21.437072   1.000000
    4      -21.418669   1.000000
    5      -21.407404   1.000000
    6      -10.071990   1.000000
    7       -8.655910   1.000000
    8       -4.366741   1.000000
    9       -1.834008   1.000000
   10       -0.884264   1.000000
   11       -0.352702   1.000000
   12        1.127507   1.000000
   13        1.289819   1.000000
   14        4.846159   0.000000
   15        5.552164   0.000000
   16        6.872682   0.000000
   17        7.311286   0.000000
   18        8.325215   0.000000
   19        8.551430   0.000000
   20        9.039755   0.000000
 
  0.2142857E+00  0.2142857E+00  0.0000000E+00  0.0000000E+00
    1      -21.451547   1.000000
    2      -21.448785   1.000000
    3      -21.438408   1.000000
    4      -21.419012   1.000000
    5      -21.406968   1.000000
    6      -10.146849   1.000000
    7       -8.659815   1.000000
    8       -4.372032   1.000000
    9       -1.635945   1.000000
   10       -0.864345   1.000000
   11       -0.303253   1.000000
   12        1.237717   1.000000
   13        1.405410   1.000000
   14        4.907606   0.000000
   15        5.510371   0.000000
   16        6.680314   0.000000
   17        7.102695   0.000000
   18        8.541043   0.000000
   19        8.662930   0.000000
   20        9.069981   0.000000
 
  0.2000000E+00  0.2000000E+00  0.0000000E+00  0.0000000E+00
    1      -21.451468   1.000000
    2      -21.448294   1.000000
    3      -21.439636   1.000000
    4      -21.419346   1.000000
    5      -21.406533   1.000000
    6      -10.218021   1.000000
    7       -8.663800   1.000000
    8       -4.379939   1.000000
    9       -1.443957   1.000000
   10       -0.834428   1.000000
   11       -0.237521   1.000000
   12        1.350852   1.000000
   13        1.524635   1.000000
   14        4.944376   0.000000
   15        5.462719   0.000000
   16        6.464072   0.000000
   17        6.895010   0.000000
   18        8.345988   0.000000
   19        8.874445   0.000000
   20        8.929983   0.000000
 
  0.1857143E+00  0.1857143E+00  0.0000000E+00  0.0000000E+00
    1      -21.451482   1.000000
    2      -21.447822   1.000000
    3      -21.440748   1.000000
    4      -21.419676   1.000000
    5      -21.406124   1.000000
    6      -10.285231   1.000000
    7       -8.667860   1.000000
    8       -4.390128   1.000000
    9       -1.261291   1.000000
   10       -0.795278   1.000000
   11       -0.153217   1.000000
   12        1.466201   1.000000
   13        1.646749   1.000000
   14        4.928471   0.000000
   15        5.441850   0.000000
   16        6.238597   0.000000
   17        6.687413   0.000000
   18        8.152206   0.000000
   19        8.525183   0.000000
   20        9.468513   0.000000
 
  0.1714286E+00  0.1714286E+00  0.0000000E+00  0.0000000E+00
    1      -21.451597   1.000000
    2      -21.447370   1.000000
    3      -21.441711   1.000000
    4      -21.419997   1.000000
    5      -21.405725   1.000000
    6      -10.348232   1.000000
    7       -8.671962   1.000000
    8       -4.402181   1.000000
    9       -1.091259   1.000000
   10       -0.747771   1.000000
   11       -0.047883   1.000000
   12        1.583051   1.000000
   13        1.771008   1.000000
   14        4.843649   0.000000
   15        5.469406   0.000000
   16        6.011670   0.000000
   17        6.479062   0.000000
   18        7.960779   0.000000
   19        8.304891   0.000000
   20        9.576901   0.000000
 
  0.1571429E+00  0.1571429E+00  0.0000000E+00  0.0000000E+00
    1      -21.451826   1.000000
    2      -21.446929   1.000000
    3      -21.442502   1.000000
    4      -21.420306   1.000000
    5      -21.405350   1.000000
    6      -10.406820   1.000000
    7       -8.676066   1.000000
    8       -4.415629   1.000000
    9       -0.936671   1.000000
   10       -0.693133   1.000000
   11        0.080007   1.000000
   12        1.700450   1.000000
   13        1.896433   1.000000
   14        4.706721   0.000000
   15        5.532492   0.000000
   16        5.788171   0.000000
   17        6.271920   0.000000
   18        7.769761   0.000000
   19        8.092044   0.000000
   20        9.885038   0.000000
 
  0.1428571E+00  0.1428571E+00  0.0000000E+00  0.0000000E+00
    1      -21.452182   1.000000
    2      -21.446514   1.000000
    3      -21.443129   1.000000
    4      -21.420606   1.000000
    5      -21.405009   1.000000
    6      -10.460818   1.000000
    7       -8.680119   1.000000
    8       -4.429972   1.000000
    9       -0.798828   1.000000
   10       -0.632741   1.000000
   11        0.230378   1.000000
   12        1.817338   1.000000
   13        2.021931   1.000000
   14        4.540432   0.000000
   15        5.571499   0.000000
   16        5.605494   0.000000
   17        6.074949   0.000000
   18        7.585057   0.000000
   19        7.886013   0.000000
   20       10.137759   0.000000
 
  0.1285714E+00  0.1285714E+00  0.0000000E+00  0.0000000E+00
    1      -21.452628   1.000000
    2      -21.446123   1.000000
    3      -21.443576   1.000000
    4      -21.420883   1.000000
    5      -21.404682   1.000000
    6      -10.510072   1.000000
    7       -8.684057   1.000000
    8       -4.444704   1.000000
    9       -0.677256   1.000000
   10       -0.568205   1.000000
   11        0.401071   1.000000
   12        1.932453   1.000000
   13        2.146191   1.000000
   14        4.358662   0.000000
   15        5.364374   0.000000
   16        5.638678   0.000000
   17        5.929797   0.000000
   18        7.407649   0.000000
   19        7.688619   0.000000
   20       10.193978   0.000000
 
  0.1142857E+00  0.1142857E+00  0.0000000E+00  0.0000000E+00
    1      -21.453144   1.000000
    2      -21.445765   1.000000
    3      -21.443883   1.000000
    4      -21.421139   1.000000
    5      -21.404382   1.000000
    6      -10.554453   1.000000
    7       -8.687817   1.000000
    8       -4.459331   1.000000
    9       -0.570272   1.000000
   10       -0.501341   1.000000
   11        0.588382   1.000000
   12        2.044307   1.000000
   13        2.267652   1.000000
   14        4.169016   0.000000
   15        5.169230   0.000000
   16        5.536324   0.000000
   17        5.929671   0.000000
   18        7.239444   0.000000
   19        7.501672   0.000000
   20       10.294880   0.000000
 
  0.1000000E+00  0.1000000E+00  0.0000000E+00  0.0000000E+00
    1      -21.453690   1.000000
    2      -21.445438   1.000000
    3      -21.444078   1.000000
    4      -21.421374   1.000000
    5      -21.404117   1.000000
    6      -10.593850   1.000000
    7       -8.691332   1.000000
    8       -4.473391   1.000000
    9       -0.475995   1.000000
   10       -0.434169   1.000000
   11        0.787986   1.000000
   12        2.151169   1.000000
   13        2.384463   1.000000
   14        3.975836   0.000000
   15        4.988413   0.000000
   16        5.361016   0.000000
   17        6.011969   0.000000
   18        7.082443   0.000000
   19        7.327158   0.000000
   20       10.146937   0.000000
 
  0.8571429E-01  0.8571429E-01  0.0000000E+00  0.0000000E+00
    1      -21.454230   1.000000
    2      -21.445147   1.000000
    3      -21.444193   1.000000