       N       E                     dE             d eps       ncg     rms          ort
DAV:   1     0.308870478626E+03    0.30887E+03   -0.99459E+03  1680   0.123E+03
DAV:   2     0.102736901436E+03   -0.20613E+03   -0.20057E+03  1680   0.354E+02
DAV:   3     0.509246551875E+02   -0.51812E+02   -0.50109E+02  1680   0.187E+02
DAV:   4     0.355813840824E+02   -0.15343E+02   -0.15063E+02  1680   0.996E+01
DAV:   5     0.323223007330E+02   -0.32591E+01   -0.31791E+01  1680   0.393E+01
SDA:   6    -0.152017504229E+02   -0.47524E+02   -0.28469E+01  1680   0.712E+01 0.000E+00
DMP:   7    -0.164223025329E+02   -0.12206E+01   -0.13336E+01  1680   0.371E+01-0.973E+00
DMP:   8    -0.172314297463E+02   -0.80913E+00   -0.26896E+00  1680   0.444E+00 0.597E+00
DMP:   9    -0.173734301347E+02   -0.14200E+00   -0.23563E+00  1680   0.608E+00-0.508E-01
DMP:  10    -0.175163664305E+02   -0.14294E+00   -0.77855E-01  1680   0.162E+00 0.850E-01
DMP:  11    -0.175773912176E+02   -0.61025E-01   -0.50856E-01  1680   0.912E-01 0.942E-01
DMP:  12    -0.176080663380E+02   -0.30675E-01   -0.21691E-01  1680   0.463E-01 0.207E-01
DMP:  13    -0.176243852971E+02   -0.16319E-01   -0.88668E-02  1680   0.123E-01 0.258E-01
DMP:  14    -0.176308627469E+02   -0.64774E-02   -0.49920E-02  1680   0.868E-02 0.996E-02
DMP:  15    -0.176345465629E+02   -0.36838E-02   -0.19283E-02  1680   0.255E-02 0.596E-02
DMP:  16    -0.176361387108E+02   -0.15921E-02   -0.10296E-02  1680   0.144E-02 0.297E-02
DMP:  17    -0.176369959242E+02   -0.85721E-03   -0.41701E-03  1680   0.506E-03 0.140E-02
DMP:  18    -0.176373915758E+02   -0.39565E-03   -0.20148E-03  1680   0.264E-03 0.626E-03
DMP:  19    -0.176375965999E+02   -0.20502E-03   -0.80627E-04  1680   0.103E-03 0.259E-03
DMP:  20    -0.176377058249E+02   -0.10922E-03   -0.38513E-04  1680   0.478E-04 0.127E-03
DMP:  21    -0.176377704350E+02   -0.64610E-04   -0.17891E-04  1680   0.228E-04 0.573E-04
DMP:  22    -0.176378105647E+02   -0.40130E-04   -0.92987E-05  1680   0.117E-04 0.301E-04
DMP:  23    -0.176378369087E+02   -0.26344E-04   -0.48264E-05  1680   0.629E-05 0.151E-04
DMP:  24    -0.176378551108E+02   -0.18202E-04   -0.26734E-05  1680   0.338E-05 0.866E-05
DMP:  25    -0.176378678633E+02   -0.12753E-04   -0.15203E-05  1680   0.196E-05 0.483E-05
DMP:  26    -0.176378768876E+02   -0.90243E-05   -0.87696E-06  1680   0.111E-05 0.283E-05
DMP:  27    -0.176378833783E+02   -0.64907E-05   -0.51009E-06  1680   0.650E-06 0.164E-05
DMP:  28    -0.176378881286E+02   -0.47503E-05   -0.29819E-06  1680   0.376E-06 0.967E-06
DMP:  29    -0.176378916111E+02   -0.34825E-05   -0.17705E-06  1680   0.225E-06 0.569E-06
DMP:  30    -0.176378941726E+02   -0.25615E-05   -0.10635E-06  1680   0.136E-06 0.341E-06
DMP:  31    -0.176378960757E+02   -0.19031E-05   -0.64795E-07  1680   0.832E-07 0.206E-06
DMP:  32    -0.176378975011E+02   -0.14254E-05   -0.39958E-07  1680   0.514E-07 0.127E-06
DMP:  33    -0.176378985686E+02   -0.10676E-05   -0.25266E-07  1680   0.329E-07 0.792E-07
DMP:  34    -0.176378993707E+02   -0.80212E-06   -0.16527E-07  1680   0.220E-07 0.507E-07
   1 F= -.17637899E+02 E0= -.17637523E+02  d E =-.752598E-03
