 vasp.5.4.4.18Apr17-6-g9f103f2a35 (build Dec 27 2023 19:01:38) complex          
  
 executed on             LinuxIFC date 2024.09.10  14:34:00
 running on   32 total cores
 distrk:  each k-point on   32 cores,    1 groups
 distr:  one band on NCORES_PER_BAND=   8 cores,    4 groups


--------------------------------------------------------------------------------------------------------


 INCAR:
 POTCAR:    PAW_PBE Ga 08Apr2002                  
 POTCAR:    PAW_PBE Bi_d 06Sep2000                
 POTCAR:    PAW_PBE As 22Sep2009                  
 POTCAR:    PAW_PBE Ga 08Apr2002                  
   VRHFIN =Ga: s2p1                                                             
   LEXCH  = PE                                                                  
   EATOM  =    58.8688 eV,    4.3267 Ry                                         
                                                                                
   TITEL  = PAW_PBE Ga 08Apr2002                                                
   LULTRA =        F    use ultrasoft PP ?                                      
   IUNSCR =        1    unscreen: 0-lin 1-nonlin 2-no                           
   RPACOR =    2.170    partial core radius                                     
   POMASS =   69.723; ZVAL   =    3.000    mass and valenz                      
   RCORE  =    2.600    outmost cutoff radius                                   
   RWIGS  =    2.650; RWIGS  =    1.402    wigner-seitz radius (au A)           
   ENMAX  =  134.678; ENMIN  =  101.009 eV                                      
   ICORE  =        3    local potential                                         
   LCOR   =        T    correct aug charges                                     
   LPAW   =        T    paw PP                                                  
   EAUG   =  320.264                                                            
   DEXC   =    0.000                                                            
   RMAX   =    2.658    core radius for proj-oper                               
   RAUG   =    1.300    factor for augmentation sphere                          
   RDEP   =    2.684    radius for radial grids                                 
   RDEPT  =    2.308    core radius for aug-charge                              
                                                                                
   Atomic configuration                                                         
   10 entries                                                                   
     n  l   j            E        occ.                                          
     1  0  0.50    -10228.7830   2.0000                                         
     2  0  0.50     -1262.1604   2.0000                                         
     2  1  1.50     -1098.6333   6.0000                                         
     3  0  0.50      -148.1110   2.0000                                         
     3  1  1.50       -98.8436   6.0000                                         
     3  2  2.50       -19.1549  10.0000                                         
     4  0  0.50        -8.9483   2.0000                                         
     4  1  0.50        -2.5791   1.0000                                         
     4  2  1.50         5.4423   0.0000                                         
     4  3  2.50        -2.7416   0.0000                                         
   Description                                                                  
     l       E           TYP  RCUT    TYP  RCUT                                 
     0     -8.9483097     23  2.600                                             
     0     -5.8232215     23  2.600                                             
     1     -2.5790793     23  2.600                                             
     1      5.2230115     23  2.600                                             
     2      1.3605826     23  2.600                                             
     3     -1.3605826      7  2.600                                             
  local pseudopotential read in
  partial core-charges read in
  partial kinetic energy density read in
  atomic valenz-charges read in
  non local Contribution for L=           0  read in
    real space projection operators read in
  non local Contribution for L=           0  read in
    real space projection operators read in
  non local Contribution for L=           1  read in
    real space projection operators read in
  non local Contribution for L=           1  read in
    real space projection operators read in
  non local Contribution for L=           2  read in
    real space projection operators read in
    PAW grid and wavefunctions read in
 
   number of l-projection  operators is LMAX  =           5
   number of lm-projection operators is LMMAX =          13
 
 POTCAR:    PAW_PBE Bi_d 06Sep2000                
   VRHFIN =Bi:                                                                  
   LEXCH  = PE                                                                  
   EATOM  =  1959.2045 eV,  143.9975 Ry                                         
                                                                                
   TITEL  = PAW_PBE Bi_d 06Sep2000                                              
   LULTRA =        F    use ultrasoft PP ?                                      
   IUNSCR =        1    unscreen: 0-lin 1-nonlin 2-no                           
   RPACOR =    2.200    partial core radius                                     
   POMASS =  208.980; ZVAL   =   15.000    mass and valenz                      
   RCORE  =    2.500    outmost cutoff radius                                   
   RWIGS  =    3.090; RWIGS  =    1.635    wigner-seitz radius (au A)           
   ENMAX  =  242.839; ENMIN  =  182.129 eV                                      
   ICORE  =        3    local potential                                         
   LCOR   =        T    correct aug charges                                     
   LPAW   =        T    paw PP                                                  
   EAUG   =  442.899                                                            
   DEXC   =    0.000                                                            
   RMAX   =    2.551    core radius for proj-oper                               
   RAUG   =    1.300    factor for augmentation sphere                          
   RDEP   =    2.650    radius for radial grids                                 
   RDEPT  =    2.039    core radius for aug-charge                              
                                                                                
   Atomic configuration                                                         
   16 entries                                                                   
     n  l   j            E        occ.                                          
     1  0  0.50    -90639.6581   2.0000                                         
     2  0  0.50    -16282.4666   2.0000                                         
     2  1  1.50    -13922.8286   6.0000                                         
     3  0  0.50     -3930.4763   2.0000                                         
     3  1  1.50     -3256.7013   6.0000                                         
     3  2  2.50     -2581.6168  10.0000                                         
     4  0  0.50      -902.2614   2.0000                                         
     4  1  1.50      -681.5915   6.0000                                         
     4  2  2.50      -429.8249  10.0000                                         
     4  3  3.50      -152.6004  14.0000                                         
     5  0  0.50      -157.7156   2.0000                                         
     5  1  1.50       -95.8054   6.0000                                         
     5  2  2.50       -27.0806  10.0000                                         
     6  0  0.50       -14.4732   2.0000                                         
     6  1  1.50        -4.5702   3.0000                                         
     5  3  2.50        -2.7212   0.0000                                         
   Description                                                                  
     l       E           TYP  RCUT    TYP  RCUT                                 
     2    -27.0805982     23  2.500                                             
     2     -1.3605826     23  2.500                                             
     0    -14.4732271     23  2.500                                             
     0      6.8029130     23  2.500                                             
     1     -4.5701651     23  2.500                                             
     1     13.6058260     23  2.500                                             
     3     -1.3605826      7  2.500                                             
  local pseudopotential read in
  partial core-charges read in
  partial kinetic energy density read in
  atomic valenz-charges read in
  non local Contribution for L=           2  read in
    real space projection operators read in
  non local Contribution for L=           2  read in
    real space projection operators read in
  non local Contribution for L=           0  read in
    real space projection operators read in
  non local Contribution for L=           0  read in
    real space projection operators read in
  non local Contribution for L=           1  read in
    real space projection operators read in
  non local Contribution for L=           1  read in
    real space projection operators read in
    PAW grid and wavefunctions read in
 
   number of l-projection  operators is LMAX  =           6
   number of lm-projection operators is LMMAX =          18
 
 POTCAR:    PAW_PBE As 22Sep2009                  
   VRHFIN =As: s2p3                                                             
   LEXCH  = PE                                                                  
   EATOM  =   170.1867 eV,   12.5084 Ry                                         
                                                                                
   TITEL  = PAW_PBE As 22Sep2009                                                
   LULTRA =        F    use ultrasoft PP ?                                      
   IUNSCR =        1    unscreen: 0-lin 1-nonlin 2-no                           
   RPACOR =    1.900    partial core radius                                     
   POMASS =   74.922; ZVAL   =    5.000    mass and valenz                      
   RCORE  =    2.100    outmost cutoff radius                                   
   RWIGS  =    2.300; RWIGS  =    1.217    wigner-seitz radius (au A)           
   ENMAX  =  208.702; ENMIN  =  156.526 eV                                      
   ICORE  =        3    local potential                                         
   LCOR   =        T    correct aug charges                                     
   LPAW   =        T    paw PP                                                  
   EAUG   =  462.758                                                            
   DEXC   =    0.000                                                            
   RMAX   =    2.144    core radius for proj-oper                               
   RAUG   =    1.300    factor for augmentation sphere                          
   RDEP   =    2.140    radius for radial grids                                 
   RDEPT  =    1.956    core radius for aug-charge                              
                                                                                
   Atomic configuration                                                         
   10 entries                                                                   
     n  l   j            E        occ.                                          
     1  0  0.50    -11718.0418   2.0000                                         
     2  0  0.50     -1486.5454   2.0000                                         
     2  1  1.50     -1303.3889   6.0000                                         
     3  0  0.50      -190.2849   2.0000                                         
     3  1  1.50      -133.6555   6.0000                                         
     3  2  2.50       -40.6443  10.0000                                         
     4  0  0.50       -14.4936   2.0000                                         
     4  1  0.50        -5.1947   3.0000                                         
     4  2  1.50        -5.4423   0.0000                                         
     4  3  2.50        -5.4423   0.0000                                         
   Description                                                                  
     l       E           TYP  RCUT    TYP  RCUT                                 
     0    -14.4935570     23  2.100                                             
     0    -11.9212055     23  2.100                                             
     1     -5.1947127     23  2.100                                             
     1     27.2116520     23  2.100                                             
     2     -5.4423304     23  2.100                                             
     3     -1.3605826      7  2.100                                             
  local pseudopotential read in
  partial core-charges read in
  partial kinetic energy density read in
  atomic valenz-charges read in
  non local Contribution for L=           0  read in
    real space projection operators read in
  non local Contribution for L=           0  read in
    real space projection operators read in
  non local Contribution for L=           1  read in
    real space projection operators read in
  non local Contribution for L=           1  read in
    real space projection operators read in
  non local Contribution for L=           2  read in
    real space projection operators read in
    PAW grid and wavefunctions read in
 
   number of l-projection  operators is LMAX  =           5
   number of lm-projection operators is LMMAX =          13
 

 ----------------------------------------------------------------------------- 
|                                                                             |
|  ADVICE TO THIS USER RUNNING 'VASP/VAMP'   (HEAR YOUR MASTER'S VOICE ...):  |
|                                                                             |
|      You have a (more or less) 'small supercell' and for smaller cells      |
|      it is recommended  to use the reciprocal-space projection scheme!      |
|      The real space optimization is not  efficient for small cells and it   |
|      is also less accurate ...                                              |
|      Therefore set LREAL=.FALSE. in the  INCAR file                         |
|                                                                             |
 ----------------------------------------------------------------------------- 

 Optimization of the real space projectors (new method)

 maximal supplied QI-value         = 14.36
 optimisation between [QCUT,QGAM] = [ 11.35, 22.84] = [ 36.05,146.02] Ry 
 Optimized for a Real-space Cutoff    1.43 Angstroem

   l    n(q)    QCUT    max X(q) W(low)/X(q) W(high)/X(q)  e(spline) 
   0     10    11.346    81.156    0.45E-04    0.70E-04    0.62E-07
   0     10    11.346    65.205    0.45E-04    0.72E-04    0.63E-07
   1      9    11.346    44.874    0.15E-03    0.63E-04    0.19E-06
   1      9    11.346    25.010    0.16E-03    0.59E-04    0.19E-06
   2      9    11.346     5.217    0.61E-04    0.14E-03    0.62E-07
 Optimization of the real space projectors (new method)

 maximal supplied QI-value         = 15.12
 optimisation between [QCUT,QGAM] = [ 11.34, 22.83] = [ 36.00,145.93] Ry 
 Optimized for a Real-space Cutoff    1.39 Angstroem

   l    n(q)    QCUT    max X(q) W(low)/X(q) W(high)/X(q)  e(spline) 
   2      9    11.338     4.360    0.29E-04    0.91E-04    0.84E-07
   2      9    11.338     7.451    0.91E-04    0.83E-04    0.19E-06
   0      9    11.338    21.015    0.59E-04    0.59E-05    0.80E-07
   0      9    11.338     9.183    0.87E-04    0.88E-05    0.12E-06
   1      9    11.338    25.904    0.84E-04    0.19E-03    0.11E-06
   1      9    11.338    13.553    0.73E-04    0.17E-03    0.10E-06
 Optimization of the real space projectors (new method)

 maximal supplied QI-value         = 17.95
 optimisation between [QCUT,QGAM] = [ 11.31, 22.80] = [ 35.82,145.56] Ry 
 Optimized for a Real-space Cutoff    1.31 Angstroem

   l    n(q)    QCUT    max X(q) W(low)/X(q) W(high)/X(q)  e(spline) 
   0      9    11.310   117.213    0.44E-04    0.60E-04    0.75E-07
   0      9    11.310    98.411    0.42E-04    0.60E-04    0.74E-07
   1      8    11.310    10.093    0.11E-03    0.13E-03    0.10E-06
   1      8    11.310     5.228    0.97E-04    0.12E-03    0.93E-07
   2      8    11.310     4.067    0.36E-04    0.60E-04    0.60E-07
  PAW_PBE Ga 08Apr2002                  :
 energy of atom  1       EATOM=  -58.8688
 kinetic energy error for atom=    0.0000 (will be added to EATOM!!)
  PAW_PBE Bi_d 06Sep2000                :
 energy of atom  2       EATOM=-1959.2045
 kinetic energy error for atom=    0.0049 (will be added to EATOM!!)
  PAW_PBE As 22Sep2009                  :
 energy of atom  3       EATOM= -170.1867
 kinetic energy error for atom=    0.0005 (will be added to EATOM!!)
 
 
 POSCAR: Ga2 Bi1 As1                             
  positions in direct lattice
  No initial velocities read in
 exchange correlation table for  LEXCH =        8
   RHO(1)=    0.500       N(1)  =     2000
   RHO(2)=  100.500       N(2)  =     4000
 


--------------------------------------------------------------------------------------------------------


 ion  position               nearest neighbor table
   1  0.500  0.000  0.726-   4 2.56   4 2.56   3 2.73   3 2.73
   2  0.000  0.500  0.274-   4 2.56   4 2.56   3 2.73   3 2.73
   3  0.000  0.000  0.000-   1 2.73   1 2.73   2 2.73   2 2.73
   4  0.500  0.500  0.500-   2 2.56   2 2.56   1 2.56   1 2.56
 
  LATTYP: Found a simple tetragonal cell.
 ALAT       =     4.3001408577
 C/A-ratio  =     1.4292232167
  
  Lattice vectors:
  
 A1 = (   4.3001408577,   0.0000000000,   0.0000000000)
 A2 = (   0.0000000000,   4.3001408577,   0.0000000000)
 A3 = (   0.0000000000,   0.0000000000,   6.1458611488)


Analysis of symmetry for initial positions (statically):
=====================================================================
 Subroutine PRICEL returns:
 Original cell was already a primitive cell.
 

 Routine SETGRP: Setting up the symmetry group for a 
 simple tetragonal supercell.


 Subroutine GETGRP returns: Found  8 space group operations
 (whereof  8 operations were pure point group operations)
 out of a pool of 16 trial point group operations.


The static configuration has the point symmetry D_2d.


Analysis of symmetry for dynamics (positions and initial velocities):
=====================================================================
 Subroutine PRICEL returns:
 Original cell was already a primitive cell.
 

 Routine SETGRP: Setting up the symmetry group for a 
 simple tetragonal supercell.


 Subroutine GETGRP returns: Found  8 space group operations
 (whereof  8 operations were pure point group operations)
 out of a pool of 16 trial point group operations.


The dynamic configuration has the point symmetry D_2d.


 Subroutine INISYM returns: Found  8 space group operations
 (whereof  8 operations are pure point group operations),
 and found     1 'primitive' translations

 
 
 KPOINTS: Automatically generated mesh            
  k-points in reciprocal lattice
Space group operators:
 irot       det(A)        alpha          n_x          n_y          n_z        tau_x        tau_y        tau_z
    1     1.000000     0.000001     1.000000     0.000000     0.000000     0.000000     0.000000     0.000000
    2    -1.000000    90.000000     0.000000     0.000000    -1.000000     0.000000     0.000000     0.000000
    3     1.000000   180.000000     0.000000     0.000000     1.000000     0.000000     0.000000     0.000000
    4    -1.000000    90.000000     0.000000     0.000000     1.000000     0.000000     0.000000     0.000000
    5    -1.000000   180.000000     0.000000     1.000000     0.000000     0.000000     0.000000     0.000000
    6     1.000000   180.000000     0.707107     0.707107     0.000000     0.000000     0.000000     0.000000
    7    -1.000000   180.000000     1.000000     0.000000     0.000000     0.000000     0.000000     0.000000
    8     1.000000   180.000000     0.707107    -0.707107     0.000000     0.000000     0.000000     0.000000

 ----------------------------------------------------------------------------- 
|                                                                             |
|           W    W    AA    RRRRR   N    N  II  N    N   GGGG   !!!           |
|           W    W   A  A   R    R  NN   N  II  NN   N  G    G  !!!           |
|           W    W  A    A  R    R  N N  N  II  N N  N  G       !!!           |
|           W WW W  AAAAAA  RRRRR   N  N N  II  N  N N  G  GGG   !            |
|           WW  WW  A    A  R   R   N   NN  II  N   NN  G    G                |
|           W    W  A    A  R    R  N    N  II  N    N   GGGG   !!!           |
|                                                                             |
|      Your generating k-point grid is not commensurate to the symmetry       |
|      of the lattice.  This can cause   slow convergence with respect        |
|      to k-points for HF type calculations                                   |
|      suggested SOLUTIONS:                                                   |
|       ) if not already the case, use automatic k-point generation           |
|       ) shift your grid to Gamma (G) (e.g. required for hex or fcc lattice) |
|                                                                             |
 ----------------------------------------------------------------------------- 

 
 Subroutine IBZKPT_HF returns following result:
 ==============================================
 
 Found    147 k-points in 1st BZ
 the following    147 k-points will be used (e.g. in the exchange kernel)
 Following reciprocal coordinates:   # in IRBZ
  0.000000  0.000000  0.000000    0.01333333   1 t-inv F
  0.200000  0.000000  0.000000    0.01333333   2 t-inv F
  0.400000  0.000000  0.000000    0.01333333   3 t-inv F
  0.200000  0.200000  0.000000    0.01333333   4 t-inv F
  0.400000  0.200000  0.000000    0.01333333   5 t-inv F
  0.400000  0.400000  0.000000    0.01333333   6 t-inv F
  0.000000  0.000000  0.333333    0.01333333   7 t-inv F
  0.200000  0.000000  0.333333    0.01333333   8 t-inv F
  0.400000  0.000000  0.333333    0.01333333   9 t-inv F
  0.200000  0.200000  0.333333    0.01333333  10 t-inv F
  0.400000  0.200000  0.333333    0.01333333  11 t-inv F
  0.400000  0.400000  0.333333    0.01333333  12 t-inv F
  0.500000  0.500000  0.000000    0.00000000  13 t-inv F
  0.485714  0.485714  0.000000    0.00000000  14 t-inv F
  0.471429  0.471429  0.000000    0.00000000  15 t-inv F
  0.457143  0.457143  0.000000    0.00000000  16 t-inv F
  0.442857  0.442857  0.000000    0.00000000  17 t-inv F
  0.428571  0.428571  0.000000    0.00000000  18 t-inv F
  0.414286  0.414286  0.000000    0.00000000  19 t-inv F
  0.400000  0.400000  0.000000    0.00000000  20 t-inv F
  0.385714  0.385714  0.000000    0.00000000  21 t-inv F
  0.371429  0.371429  0.000000    0.00000000  22 t-inv F
  0.357143  0.357143  0.000000    0.00000000  23 t-inv F
  0.342857  0.342857  0.000000    0.00000000  24 t-inv F
  0.328571  0.328571  0.000000    0.00000000  25 t-inv F
  0.314286  0.314286  0.000000    0.00000000  26 t-inv F
  0.300000  0.300000  0.000000    0.00000000  27 t-inv F
  0.285714  0.285714  0.000000    0.00000000  28 t-inv F
  0.271429  0.271429  0.000000    0.00000000  29 t-inv F
  0.257143  0.257143  0.000000    0.00000000  30 t-inv F
  0.242857  0.242857  0.000000    0.00000000  31 t-inv F
  0.228571  0.228571  0.000000    0.00000000  32 t-inv F
  0.214286  0.214286  0.000000    0.00000000  33 t-inv F
  0.200000  0.200000  0.000000    0.00000000  34 t-inv F
  0.185714  0.185714  0.000000    0.00000000  35 t-inv F
  0.171429  0.171429  0.000000    0.00000000  36 t-inv F
  0.157143  0.157143  0.000000    0.00000000  37 t-inv F
  0.142857  0.142857  0.000000    0.00000000  38 t-inv F
  0.128571  0.128571  0.000000    0.00000000  39 t-inv F
  0.114286  0.114286  0.000000    0.00000000  40 t-inv F
  0.100000  0.100000  0.000000    0.00000000  41 t-inv F
  0.085714  0.085714  0.000000    0.00000000  42 t-inv F
  0.071429  0.071429  0.000000    0.00000000  43 t-inv F
  0.057143  0.057143  0.000000    0.00000000  44 t-inv F
  0.042857  0.042857  0.000000    0.00000000  45 t-inv F
  0.028571  0.028571  0.000000    0.00000000  46 t-inv F
  0.014286  0.014286  0.000000    0.00000000  47 t-inv F
  0.000000  0.000000  0.000000    0.00000000  48 t-inv F
  0.000000  0.000000  0.000000    0.00000000  49 t-inv F
  0.000000  0.000000  0.014286    0.00000000  50 t-inv F
  0.000000  0.000000  0.028571    0.00000000  51 t-inv F
  0.000000  0.000000  0.042857    0.00000000  52 t-inv F
  0.000000  0.000000  0.057143    0.00000000  53 t-inv F
  0.000000  0.000000  0.071429    0.00000000  54 t-inv F
  0.000000  0.000000  0.085714    0.00000000  55 t-inv F
  0.000000  0.000000  0.100000    0.00000000  56 t-inv F
  0.000000  0.000000  0.114286    0.00000000  57 t-inv F
  0.000000  0.000000  0.128571    0.00000000  58 t-inv F
  0.000000  0.000000  0.142857    0.00000000  59 t-inv F
  0.000000  0.000000  0.157143    0.00000000  60 t-inv F
  0.000000  0.000000  0.171429    0.00000000  61 t-inv F
  0.000000  0.000000  0.185714    0.00000000  62 t-inv F
  0.000000  0.000000  0.200000    0.00000000  63 t-inv F
  0.000000  0.000000  0.214286    0.00000000  64 t-inv F
  0.000000  0.000000  0.228571    0.00000000  65 t-inv F
  0.000000  0.000000  0.242857    0.00000000  66 t-inv F
  0.000000  0.000000  0.257143    0.00000000  67 t-inv F
  0.000000  0.000000  0.271429    0.00000000  68 t-inv F
  0.000000  0.000000  0.285714    0.00000000  69 t-inv F
  0.000000  0.000000  0.300000    0.00000000  70 t-inv F
  0.000000  0.000000  0.314286    0.00000000  71 t-inv F
  0.000000  0.000000  0.328571    0.00000000  72 t-inv F
  0.000000  0.000000  0.342857    0.00000000  73 t-inv F
  0.000000  0.000000  0.357143    0.00000000  74 t-inv F
  0.000000  0.000000  0.371429    0.00000000  75 t-inv F
  0.000000  0.000000  0.385714    0.00000000  76 t-inv F
  0.000000  0.000000  0.400000    0.00000000  77 t-inv F
  0.000000  0.000000  0.414286    0.00000000  78 t-inv F
  0.000000  0.000000  0.428571    0.00000000  79 t-inv F
  0.000000  0.000000  0.442857    0.00000000  80 t-inv F
  0.000000  0.000000  0.457143    0.00000000  81 t-inv F
  0.000000  0.000000  0.471429    0.00000000  82 t-inv F
  0.000000  0.000000  0.485714    0.00000000  83 t-inv F
  0.000000  0.000000  0.500000    0.00000000  84 t-inv F
  0.000000 -0.200000  0.000000    0.01333333   2 t-inv F
 -0.200000  0.000000  0.000000    0.01333333   2 t-inv F
  0.000000  0.200000  0.000000    0.01333333   2 t-inv F
  0.000000 -0.400000  0.000000    0.01333333   3 t-inv F
 -0.400000  0.000000  0.000000    0.01333333   3 t-inv F
  0.000000  0.400000  0.000000    0.01333333   3 t-inv F
  0.200000 -0.200000  0.000000    0.01333333   4 t-inv F
 -0.200000 -0.200000  0.000000    0.01333333   4 t-inv F
 -0.200000  0.200000  0.000000    0.01333333   4 t-inv F
  0.200000 -0.400000  0.000000    0.01333333   5 t-inv F
 -0.400000 -0.200000  0.000000    0.01333333   5 t-inv F
 -0.200000  0.400000  0.000000    0.01333333   5 t-inv F
  0.400000 -0.200000  0.000000    0.01333333   5 t-inv F
  0.200000  0.400000  0.000000    0.01333333   5 t-inv F
 -0.400000  0.200000  0.000000    0.01333333   5 t-inv F
 -0.200000 -0.400000  0.000000    0.01333333   5 t-inv F
  0.400000 -0.400000  0.000000    0.01333333   6 t-inv F
 -0.400000 -0.400000  0.000000    0.01333333   6 t-inv F
 -0.400000  0.400000  0.000000    0.01333333   6 t-inv F
  0.000000  0.000000 -0.333333    0.01333333   7 t-inv F
  0.000000 -0.200000 -0.333333    0.01333333   8 t-inv F
 -0.200000  0.000000  0.333333    0.01333333   8 t-inv F
  0.000000  0.200000 -0.333333    0.01333333   8 t-inv F
  0.000000 -0.400000 -0.333333    0.01333333   9 t-inv F
 -0.400000  0.000000  0.333333    0.01333333   9 t-inv F
  0.000000  0.400000 -0.333333    0.01333333   9 t-inv F
  0.200000 -0.200000 -0.333333    0.01333333  10 t-inv F
 -0.200000 -0.200000  0.333333    0.01333333  10 t-inv F
 -0.200000  0.200000 -0.333333    0.01333333  10 t-inv F
  0.200000 -0.200000  0.333333    0.01333333  10 t-inv F
  0.200000  0.200000 -0.333333    0.01333333  10 t-inv F
 -0.200000  0.200000  0.333333    0.01333333  10 t-inv F
 -0.200000 -0.200000 -0.333333    0.01333333  10 t-inv F
  0.200000 -0.400000 -0.333333    0.01333333  11 t-inv F
 -0.400000 -0.200000  0.333333    0.01333333  11 t-inv F
 -0.200000  0.400000 -0.333333    0.01333333  11 t-inv F
  0.400000 -0.200000  0.333333    0.01333333  11 t-inv F
  0.200000  0.400000 -0.333333    0.01333333  11 t-inv F
 -0.400000  0.200000  0.333333    0.01333333  11 t-inv F
 -0.200000 -0.400000 -0.333333    0.01333333  11 t-inv F
  0.400000 -0.400000 -0.333333    0.01333333  12 t-inv F
 -0.400000 -0.400000  0.333333    0.01333333  12 t-inv F
 -0.400000  0.400000 -0.333333    0.01333333  12 t-inv F
  0.400000 -0.400000  0.333333    0.01333333  12 t-inv F
  0.400000  0.400000 -0.333333    0.01333333  12 t-inv F
 -0.400000  0.400000  0.333333    0.01333333  12 t-inv F
 -0.400000 -0.400000 -0.333333    0.01333333  12 t-inv F
 -0.200000  0.000000 -0.333333    0.01333333   8 t-inv T
  0.000000  0.200000  0.333333    0.01333333   8 t-inv T
  0.200000  0.000000 -0.333333    0.01333333   8 t-inv T
  0.000000 -0.200000  0.333333    0.01333333   8 t-inv T
 -0.400000  0.000000 -0.333333    0.01333333   9 t-inv T
  0.000000  0.400000  0.333333    0.01333333   9 t-inv T
  0.400000  0.000000 -0.333333    0.01333333   9 t-inv T
  0.000000 -0.400000  0.333333    0.01333333   9 t-inv T
 -0.400000 -0.200000 -0.333333    0.01333333  11 t-inv T
 -0.200000  0.400000  0.333333    0.01333333  11 t-inv T
  0.400000  0.200000 -0.333333    0.01333333  11 t-inv T
  0.200000 -0.400000  0.333333    0.01333333  11 t-inv T
 -0.400000  0.200000 -0.333333    0.01333333  11 t-inv T
 -0.200000 -0.400000  0.333333    0.01333333  11 t-inv T
  0.400000 -0.200000 -0.333333    0.01333333  11 t-inv T
  0.200000  0.400000  0.333333    0.01333333  11 t-inv T


--------------------------------------------------------------------------------------------------------




 Dimension of arrays:
   k-points           NKPTS =     84   k-points in BZ     NKDIM =    147   number of bands    NBANDS=     20
   number of dos      NEDOS =    301   number of ions     NIONS =      4
   non local maximal  LDIM  =      6   non local SUM 2l+1 LMDIM =     18
   total plane-waves  NPLWV =  49152
   max r-space proj   IRMAX =   5363   max aug-charges    IRDMAX=  31281
   dimension x,y,z NGX =    32 NGY =   32 NGZ =   48
   dimension x,y,z NGXF=    64 NGYF=   64 NGZF=   96
   support grid    NGXF=    64 NGYF=   64 NGZF=   96
   ions per type =               2   1   1
   NGX,Y,Z   is equivalent  to a cutoff of  12.37, 12.37, 12.98 a.u.
   NGXF,Y,Z  is equivalent  to a cutoff of  24.74, 24.74, 25.97 a.u.

 SYSTEM =  Ga2BiAs                                 
 POSCAR =  Ga2 Bi1 As1                             

 Startparameter for this run:
   NWRITE =      2    write-flag & timer
   PREC   = accura    normal or accurate (medium, high low for compatibility)
   ISTART =      0    job   : 0-new  1-cont  2-samecut
   ICHARG =      2    charge: 1-file 2-atom 10-const
   ISPIN  =      1    spin polarized calculation?
   LNONCOLLINEAR =      F non collinear calculations
   LSORBIT =      F    spin-orbit coupling
   INIWAV =      1    electr: 0-lowe 1-rand  2-diag
   LASPH  =      F    aspherical Exc in radial PAW
   METAGGA=      F    non-selfconsistent MetaGGA calc.

 Electronic Relaxation 1
   ENCUT  =  500.0 eV  36.75 Ry    6.06 a.u.   7.84  7.84 11.21*2*pi/ulx,y,z
   ENINI  =  500.0     initial cutoff
   ENAUG  =  462.8 eV  augmentation charge cutoff
   NELM   =     60;   NELMIN=  2; NELMDL= -5     # of ELM steps 
   EDIFF  = 0.1E-05   stopping-criterion for ELM
   LREAL  =      T    real-space projection
   NLSPLINE    = F    spline interpolate recip. space projectors
   LCOMPAT=      F    compatible to vasp.4.4
   GGA_COMPAT  = T    GGA compatible to vasp.4.4-vasp.4.6
   LMAXPAW     = -100 max onsite density
   LMAXMIX     =    2 max onsite mixed and CHGCAR
   VOSKOWN=      0    Vosko Wilk Nusair interpolation
   ROPT   =   -0.00025  -0.00025  -0.00025
 Ionic relaxation
   EDIFFG = -.1E-01   stopping-criterion for IOM
   NSW    =      0    number of steps for IOM
   NBLOCK =      1;   KBLOCK =      1    inner block; outer block 
   IBRION =     -1    ionic relax: 0-MD 1-quasi-New 2-CG
   NFREE  =      0    steps in history (QN), initial steepest desc. (CG)
   ISIF   =      0    stress and relaxation
   IWAVPR =     10    prediction:  0-non 1-charg 2-wave 3-comb
   ISYM   =      3    0-nonsym 1-usesym 2-fastsym
   LCORR  =      T    Harris-Foulkes like correction to forces

   POTIM  = 0.5000    time-step for ionic-motion
   TEIN   =    0.0    initial temperature
   TEBEG  =    0.0;   TEEND  =   0.0 temperature during run
   SMASS  =  -3.00    Nose mass-parameter (am)
   estimated Nose-frequenzy (Omega)   =  0.10E-29 period in steps =****** mass=  -0.423E-27a.u.
   SCALEE = 1.0000    scale energy and forces
   NPACO  =    256;   APACO  = 16.0  distance and # of slots for P.C.
   PSTRESS=    0.0 pullay stress

  Mass of Ions in am
   POMASS =  69.72208.98 74.92
  Ionic Valenz
   ZVAL   =   3.00 15.00  5.00
  Atomic Wigner-Seitz radii
   RWIGS  =  -1.00 -1.00 -1.00
  virtual crystal weights 
   VCA    =   1.00  1.00  1.00
   NELECT =      26.0000    total number of electrons
   NUPDOWN=      -1.0000    fix difference up-down

 DOS related values:
   EMIN   =  10.00;   EMAX   =-10.00  energy-range for DOS
   EFERMI =   0.00
   ISMEAR =     0;   SIGMA  =   0.05  broadening in eV -4-tet -1-fermi 0-gaus

 Electronic relaxation 2 (details)
   IALGO  =     53    algorithm
   LDIAG  =      T    sub-space diagonalisation (order eigenvalues)
   LSUBROT=      F    optimize rotation matrix (better conditioning)
   TURBO    =      0    0=normal 1=particle mesh
   IRESTART =      0    0=no restart 2=restart with 2 vectors
   NREBOOT  =      0    no. of reboots
   NMIN     =      0    reboot dimension
   EREF     =   0.00    reference energy to select bands
   IMIX   =      4    mixing-type and parameters
     AMIX     =   0.40;   BMIX     =  1.00
     AMIX_MAG =   1.60;   BMIX_MAG =  1.00
     AMIN     =   0.10
     WC   =   100.;   INIMIX=   1;  MIXPRE=   1;  MAXMIX= -45

 Intra band minimization:
   WEIMIN = 0.0000     energy-eigenvalue tresh-hold
   EBREAK =  0.12E-07  absolut break condition
   DEPER  =   0.30     relativ break condition  

   TIME   =   0.40     timestep for ELM

  volume/ion in A,a.u.               =      28.41       191.73
  Fermi-wavevector in a.u.,A,eV,Ry     =   1.001267  1.892120 13.640326  1.002536
  Thomas-Fermi vector in A             =   2.133678
 
 Write flags
   LWAVE        =      F    write WAVECAR
   LDOWNSAMPLE  =      F    k-point downsampling of WAVECAR
   LCHARG       =      F    write CHGCAR
   LVTOT        =      F    write LOCPOT, total local potential
   LVHAR        =      F    write LOCPOT, Hartree potential only
   LELF         =      F    write electronic localiz. function (ELF)
   LORBIT       =      0    0 simple, 1 ext, 2 COOP (PROOUT), +10 PAW based schemes


 Dipole corrections
   LMONO  =      F    monopole corrections only (constant potential shift)
   LDIPOL =      F    correct potential (dipole corrections)
   IDIPOL =      0    1-x, 2-y, 3-z, 4-all directions 
   EPSILON=  1.0000000 bulk dielectric constant

 Exchange correlation treatment:
   GGA     =    PE    GGA type
   LEXCH   =     8    internal setting for exchange type
   VOSKOWN=      0    Vosko Wilk Nusair interpolation
   EXXOEP  =     0    0=HF, 1=EXX-LHF (local Hartree Fock) 2=EXX OEP
   LHFCALC =     T    Hartree Fock is set to
   LSYMGRAD=     F    symmetrize gradient (conserves proper symmetry)
   PRECFOCK=normal    Normal, Fast or Accurate (Low or Medium for compatibility)
   LRHFCALC=     F    long range Hartree Fock
   LRSCOR  =     F    long range correlation only (use DFT for short range part)
   LTHOMAS =     F    Thomas Fermi screening in HF
   LMODELHF=     F    short range full HF, long range fraction AEXX
   ENCUT4O =  -1.0   cutoff for four orbital integrals eV
   LMAXFOCK=     4    L truncation for augmentation on plane wave grid
   LMAXFOCKAE=  -1    L truncation for all-electron charge restoration on plane wave grid
   NMAXFOCKAE=   1    number of basis functions for all-electron charge restoration
   LFOCKAEDFT=     F  apply the AE augmentation even for DFT
   NKREDX  =     1    reduce k-point grid by
   NKREDY  =     1    reduce k-point grid by
   NKREDZ  =     1    reduce k-point grid by
   SHIFTRED=     F    shift reduced grid of Gamma
   HFKIDENT=     F    idential grid for each k-point
   ODDONLY =     F    use only odd q-grid points
   EVENONLY=     F    use only even q-grid points
   HFALPHA =   -1.0000 decay constant for conv. correction
   MCALPHA =    0.0000 extent of test-charge in conv. correction in multipole expansion
   AEXX    =    0.2500 exact exchange contribution
   HFSCREEN=    0.2000 screening length (either q_TF or 0.3 A-1)
   HFSCREENC=   0.2000 screening length for correlation (either q_TF or 0.3 A-1)
   HFRCUT  =    0.0000 spherical cutoff for potential kernel
   ALDAX   =    0.7500 LDA exchange part
   AGGAX   =    0.7500 GGA exchange part
   ALDAC   =    1.0000 LDA correlation
   AGGAC   =    1.0000 GGA correlation
   ENCUTFOCK=  -1.0 apply spherical cutoff to Coloumb kernel
   NBANDSGWLOW=     1    first orbital included in HF term
   NBLOCK_FOCK=    64    blocking factor in FOCK_ACC
 Linear response parameters
   LEPSILON=     F    determine dielectric tensor
   LRPA    =     F    only Hartree local field effects (RPA)
   LNABLA  =     F    use nabla operator in PAW spheres
   LVEL    =     F    velocity operator in full k-point grid
   LINTERFAST=   F  fast interpolation
   KINTER  =     0    interpolate to denser k-point grid
   CSHIFT  =0.1000    complex shift for real part using Kramers Kronig
   OMEGAMAX=  -1.0    maximum frequency
   DEG_THRESHOLD= 0.2000000E-02 threshold for treating states as degnerate
   RTIME   =   -0.100 relaxation time in fs
  (WPLASMAI=    0.000 imaginary part of plasma frequency in eV, 0.658/RTIME)
   DFIELD  = 0.0000000 0.0000000 0.0000000 field for delta impulse in time
 
 Orbital magnetization related:
   ORBITALMAG=     F  switch on orbital magnetization
   LCHIMAG   =     F  perturbation theory with respect to B field
   DQ        =  0.001000  dq finite difference perturbation B field
   LLRAUG    =     F  two centre corrections for induced B field



--------------------------------------------------------------------------------------------------------


 Static calculation
 charge density and potential will be updated during run
 non-spin polarized calculation
 Conjugate gradient for all bands (Freysoldt, et al. PRB 79, 241103 (2009))
 perform sub-space diagonalisation
    before iterative eigenvector-optimisation
 modified Broyden-mixing scheme, WC =      100.0
 initial mixing is a Kerker type mixing with AMIX =  0.4000 and BMIX =      1.0000
 Hartree-type preconditioning will be used
 using additional bands            7
 real space projection scheme for non local part
 use partial core corrections
 no Harris-corrections to forces 
 use gradient corrections 
 use of overlap-Matrix (Vanderbilt PP)
 Gauss-broadening in eV      SIGMA  =   0.05


--------------------------------------------------------------------------------------------------------


  energy-cutoff  :      500.00
  volume of cell :      113.64
      direct lattice vectors                 reciprocal lattice vectors
     4.300140858  0.000000000  0.000000000     0.232550522  0.000000000  0.000000000
     0.000000000  4.300140858  0.000000000     0.000000000  0.232550522  0.000000000
     0.000000000  0.000000000  6.145861149     0.000000000  0.000000000  0.162711128

  length of vectors
     4.300140858  4.300140858  6.145861149     0.232550522  0.232550522  0.162711128


 
 k-points in units of 2pi/SCALE and weight: Automatically generated mesh            
   0.00000000  0.00000000  0.00000000       0.013
   0.04651010  0.00000000  0.00000000       0.053
   0.09302021  0.00000000  0.00000000       0.053
   0.04651010  0.04651010  0.00000000       0.053
   0.09302021  0.04651010  0.00000000       0.107
   0.09302021  0.09302021  0.00000000       0.053
   0.00000000  0.00000000  0.05423704       0.027
   0.04651010  0.00000000  0.05423704       0.107
   0.09302021  0.00000000  0.05423704       0.107
   0.04651010  0.04651010  0.05423704       0.107
   0.09302021  0.04651010  0.05423704       0.213
   0.09302021  0.09302021  0.05423704       0.107
   0.11627526  0.11627526  0.00000000       0.000
   0.11295311  0.11295311  0.00000000       0.000
   0.10963096  0.10963096  0.00000000       0.000
   0.10630881  0.10630881  0.00000000       0.000
   0.10298666  0.10298666  0.00000000       0.000
   0.09966451  0.09966451  0.00000000       0.000
   0.09634236  0.09634236  0.00000000       0.000
   0.09302021  0.09302021  0.00000000       0.000
   0.08969806  0.08969806  0.00000000       0.000
   0.08637591  0.08637591  0.00000000       0.000
   0.08305376  0.08305376  0.00000000       0.000
   0.07973161  0.07973161  0.00000000       0.000
   0.07640946  0.07640946  0.00000000       0.000
   0.07308731  0.07308731  0.00000000       0.000
   0.06976516  0.06976516  0.00000000       0.000
   0.06644301  0.06644301  0.00000000       0.000
   0.06312086  0.06312086  0.00000000       0.000
   0.05979871  0.05979871  0.00000000       0.000
   0.05647655  0.05647655  0.00000000       0.000
   0.05315441  0.05315441  0.00000000       0.000
   0.04983225  0.04983225  0.00000000       0.000
   0.04651010  0.04651010  0.00000000       0.000
   0.04318796  0.04318796  0.00000000       0.000
   0.03986580  0.03986580  0.00000000       0.000
   0.03654365  0.03654365  0.00000000       0.000
   0.03322150  0.03322150  0.00000000       0.000
   0.02989935  0.02989935  0.00000000       0.000
   0.02657720  0.02657720  0.00000000       0.000
   0.02325505  0.02325505  0.00000000       0.000
   0.01993290  0.01993290  0.00000000       0.000
   0.01661075  0.01661075  0.00000000       0.000
   0.01328860  0.01328860  0.00000000       0.000
   0.00996645  0.00996645  0.00000000       0.000
   0.00664430  0.00664430  0.00000000       0.000
   0.00332215  0.00332215  0.00000000       0.000
   0.00000000  0.00000000  0.00000000       0.000
   0.00000000  0.00000000  0.00000000       0.000
   0.00000000  0.00000000  0.00232444       0.000
   0.00000000  0.00000000  0.00464889       0.000
   0.00000000  0.00000000  0.00697333       0.000
   0.00000000  0.00000000  0.00929778       0.000
   0.00000000  0.00000000  0.01162222       0.000
   0.00000000  0.00000000  0.01394667       0.000
   0.00000000  0.00000000  0.01627111       0.000
   0.00000000  0.00000000  0.01859556       0.000
   0.00000000  0.00000000  0.02092000       0.000
   0.00000000  0.00000000  0.02324445       0.000
   0.00000000  0.00000000  0.02556889       0.000
   0.00000000  0.00000000  0.02789334       0.000
   0.00000000  0.00000000  0.03021778       0.000
   0.00000000  0.00000000  0.03254223       0.000
   0.00000000  0.00000000  0.03486667       0.000
   0.00000000  0.00000000  0.03719112       0.000
   0.00000000  0.00000000  0.03951556       0.000
   0.00000000  0.00000000  0.04184000       0.000
   0.00000000  0.00000000  0.04416445       0.000
   0.00000000  0.00000000  0.04648889       0.000
   0.00000000  0.00000000  0.04881334       0.000
   0.00000000  0.00000000  0.05113778       0.000
   0.00000000  0.00000000  0.05346223       0.000
   0.00000000  0.00000000  0.05578667       0.000
   0.00000000  0.00000000  0.05811112       0.000
   0.00000000  0.00000000  0.06043556       0.000
   0.00000000  0.00000000  0.06276001       0.000
   0.00000000  0.00000000  0.06508445       0.000
   0.00000000  0.00000000  0.06740890       0.000
   0.00000000  0.00000000  0.06973334       0.000
   0.00000000  0.00000000  0.07205778       0.000
   0.00000000  0.00000000  0.07438223       0.000
   0.00000000  0.00000000  0.07670667       0.000
   0.00000000  0.00000000  0.07903112       0.000
   0.00000000  0.00000000  0.08135556       0.000
 
 k-points in reciprocal lattice and weights: Automatically generated mesh            
   0.00000000  0.00000000  0.00000000       0.013
   0.20000000  0.00000000  0.00000000       0.053
   0.40000000  0.00000000  0.00000000       0.053
   0.20000000  0.20000000  0.00000000       0.053
   0.40000000  0.20000000  0.00000000       0.107
   0.40000000  0.40000000  0.00000000       0.053
   0.00000000  0.00000000  0.33333333       0.027
   0.20000000  0.00000000  0.33333333       0.107
   0.40000000  0.00000000  0.33333333       0.107
   0.20000000  0.20000000  0.33333333       0.107
   0.40000000  0.20000000  0.33333333       0.213
   0.40000000  0.40000000  0.33333333       0.107
   0.50000000  0.50000000  0.00000000       0.000
   0.48571429  0.48571429  0.00000000       0.000
   0.47142857  0.47142857  0.00000000       0.000
   0.45714286  0.45714286  0.00000000       0.000
   0.44285714  0.44285714  0.00000000       0.000
   0.42857143  0.42857143  0.00000000       0.000
   0.41428571  0.41428571  0.00000000       0.000
   0.40000000  0.40000000  0.00000000       0.000
   0.38571429  0.38571429  0.00000000       0.000
   0.37142857  0.37142857  0.00000000       0.000
   0.35714286  0.35714286  0.00000000       0.000
   0.34285714  0.34285714  0.00000000       0.000
   0.32857143  0.32857143  0.00000000       0.000
   0.31428571  0.31428571  0.00000000       0.000
   0.30000000  0.30000000  0.00000000       0.000
   0.28571429  0.28571429  0.00000000       0.000
   0.27142857  0.27142857  0.00000000       0.000
   0.25714286  0.25714286  0.00000000       0.000
   0.24285714  0.24285714  0.00000000       0.000
   0.22857143  0.22857143  0.00000000       0.000
   0.21428571  0.21428571  0.00000000       0.000
   0.20000000  0.20000000  0.00000000       0.000
   0.18571429  0.18571429  0.00000000       0.000
   0.17142857  0.17142857  0.00000000       0.000
   0.15714286  0.15714286  0.00000000       0.000
   0.14285714  0.14285714  0.00000000       0.000
   0.12857143  0.12857143  0.00000000       0.000
   0.11428571  0.11428571  0.00000000       0.000
   0.10000000  0.10000000  0.00000000       0.000
   0.08571429  0.08571429  0.00000000       0.000
   0.07142857  0.07142857  0.00000000       0.000
   0.05714286  0.05714286  0.00000000       0.000
   0.04285714  0.04285714  0.00000000       0.000
   0.02857143  0.02857143  0.00000000       0.000
   0.01428571  0.01428571  0.00000000       0.000
   0.00000000  0.00000000  0.00000000       0.000
   0.00000000  0.00000000  0.00000000       0.000
   0.00000000  0.00000000  0.01428571       0.000
   0.00000000  0.00000000  0.02857143       0.000
   0.00000000  0.00000000  0.04285714       0.000
   0.00000000  0.00000000  0.05714286       0.000
   0.00000000  0.00000000  0.07142857       0.000
   0.00000000  0.00000000  0.08571429       0.000
   0.00000000  0.00000000  0.10000000       0.000
   0.00000000  0.00000000  0.11428571       0.000
   0.00000000  0.00000000  0.12857143       0.000
   0.00000000  0.00000000  0.14285714       0.000
   0.00000000  0.00000000  0.15714286       0.000
   0.00000000  0.00000000  0.17142857       0.000
   0.00000000  0.00000000  0.18571429       0.000
   0.00000000  0.00000000  0.20000000       0.000
   0.00000000  0.00000000  0.21428571       0.000
   0.00000000  0.00000000  0.22857143       0.000
   0.00000000  0.00000000  0.24285714       0.000
   0.00000000  0.00000000  0.25714286       0.000
   0.00000000  0.00000000  0.27142857       0.000
   0.00000000  0.00000000  0.28571429       0.000
   0.00000000  0.00000000  0.30000000       0.000
   0.00000000  0.00000000  0.31428571       0.000
   0.00000000  0.00000000  0.32857143       0.000
   0.00000000  0.00000000  0.34285714       0.000
   0.00000000  0.00000000  0.35714286       0.000
   0.00000000  0.00000000  0.37142857       0.000
   0.00000000  0.00000000  0.38571429       0.000
   0.00000000  0.00000000  0.40000000       0.000
   0.00000000  0.00000000  0.41428571       0.000
   0.00000000  0.00000000  0.42857143       0.000
   0.00000000  0.00000000  0.44285714       0.000
   0.00000000  0.00000000  0.45714286       0.000
   0.00000000  0.00000000  0.47142857       0.000
   0.00000000  0.00000000  0.48571429       0.000
   0.00000000  0.00000000  0.50000000       0.000
 
 position of ions in fractional coordinates (direct lattice) 
   0.50000000  0.00000000  0.72573602
   0.00000000  0.50000000  0.27426400
   0.00000000  0.00000000  0.00000000
   0.50000000  0.50000000  0.50000000
 
 position of ions in cartesian coordinates  (Angst):
   2.15007043  0.00000000  4.46027279
   0.00000000  2.15007043  1.68558848
   0.00000000  0.00000000  0.00000000
   2.15007043  2.15007043  3.07293057
 


--------------------------------------------------------------------------------------------------------


 k-point  1 :   0.0000 0.0000 0.0000  plane waves:    2879
 k-point  2 :   0.2000 0.0000 0.0000  plane waves:    2890
 k-point  3 :   0.4000 0.0000 0.0000  plane waves:    2880
 k-point  4 :   0.2000 0.2000 0.0000  plane waves:    2877
 k-point  5 :   0.4000 0.2000 0.0000  plane waves:    2889
 k-point  6 :   0.4000 0.4000 0.0000  plane waves:    2877
 k-point  7 :   0.0000 0.0000 0.3333  plane waves:    2874
 k-point  8 :   0.2000 0.0000 0.3333  plane waves:    2882
 k-point  9 :   0.4000 0.0000 0.3333  plane waves:    2882
 k-point 10 :   0.2000 0.2000 0.3333  plane waves:    2872
 k-point 11 :   0.4000 0.2000 0.3333  plane waves:    2894
 k-point 12 :   0.4000 0.4000 0.3333  plane waves:    2890
 k-point 13 :   0.5000 0.5000 0.0000  plane waves:    2880
 k-point 14 :   0.4857 0.4857 0.0000  plane waves:    2870
 k-point 15 :   0.4714 0.4714 0.0000  plane waves:    2868
 k-point 16 :   0.4571 0.4571 0.0000  plane waves:    2868
 k-point 17 :   0.4429 0.4429 0.0000  plane waves:    2873
 k-point 18 :   0.4286 0.4286 0.0000  plane waves:    2889
 k-point 19 :   0.4143 0.4143 0.0000  plane waves:    2885
 k-point 20 :   0.4000 0.4000 0.0000  plane waves:    2877
 k-point 21 :   0.3857 0.3857 0.0000  plane waves:    2875
 k-point 22 :   0.3714 0.3714 0.0000  plane waves:    2875
 k-point 23 :   0.3571 0.3571 0.0000  plane waves:    2875
 k-point 24 :   0.3429 0.3429 0.0000  plane waves:    2883
 k-point 25 :   0.3286 0.3286 0.0000  plane waves:    2885
 k-point 26 :   0.3143 0.3143 0.0000  plane waves:    2887
 k-point 27 :   0.3000 0.3000 0.0000  plane waves:    2885
 k-point 28 :   0.2857 0.2857 0.0000  plane waves:    2889
 k-point 29 :   0.2714 0.2714 0.0000  plane waves:    2889
 k-point 30 :   0.2571 0.2571 0.0000  plane waves:    2887
 k-point 31 :   0.2429 0.2429 0.0000  plane waves:    2883
 k-point 32 :   0.2286 0.2286 0.0000  plane waves:    2883
 k-point 33 :   0.2143 0.2143 0.0000  plane waves:    2883
 k-point 34 :   0.2000 0.2000 0.0000  plane waves:    2877
 k-point 35 :   0.1857 0.1857 0.0000  plane waves:    2871
 k-point 36 :   0.1714 0.1714 0.0000  plane waves:    2877
 k-point 37 :   0.1571 0.1571 0.0000  plane waves:    2871
 k-point 38 :   0.1429 0.1429 0.0000  plane waves:    2883
 k-point 39 :   0.1286 0.1286 0.0000  plane waves:    2879
 k-point 40 :   0.1143 0.1143 0.0000  plane waves:    2877
 k-point 41 :   0.1000 0.1000 0.0000  plane waves:    2877
 k-point 42 :   0.0857 0.0857 0.0000  plane waves:    2877
 k-point 43 :   0.0714 0.0714 0.0000  plane waves:    2889
 k-point 44 :   0.0571 0.0571 0.0000  plane waves:    2881
 k-point 45 :   0.0429 0.0429 0.0000  plane waves:    2875
 k-point 46 :   0.0286 0.0286 0.0000  plane waves:    2881
 k-point 47 :   0.0143 0.0143 0.0000  plane waves:    2887
 k-point 48 :   0.0000 0.0000 0.0000  plane waves:    2879
 k-point 49 :   0.0000 0.0000 0.0000  plane waves:    2879
 k-point 50 :   0.0000 0.0000 0.0143  plane waves:    2879
 k-point 51 :   0.0000 0.0000 0.0286  plane waves:    2883
 k-point 52 :   0.0000 0.0000 0.0429  plane waves:    2883
 k-point 53 :   0.0000 0.0000 0.0571  plane waves:    2887
 k-point 54 :   0.0000 0.0000 0.0714  plane waves:    2879
 k-point 55 :   0.0000 0.0000 0.0857  plane waves:    2879
 k-point 56 :   0.0000 0.0000 0.1000  plane waves:    2879
 k-point 57 :   0.0000 0.0000 0.1143  plane waves:    2875
 k-point 58 :   0.0000 0.0000 0.1286  plane waves:    2875
 k-point 59 :   0.0000 0.0000 0.1429  plane waves:    2875
 k-point 60 :   0.0000 0.0000 0.1571  plane waves:    2867
 k-point 61 :   0.0000 0.0000 0.1714  plane waves:    2875
 k-point 62 :   0.0000 0.0000 0.1857  plane waves:    2875
 k-point 63 :   0.0000 0.0000 0.2000  plane waves:    2875
 k-point 64 :   0.0000 0.0000 0.2143  plane waves:    2870
 k-point 65 :   0.0000 0.0000 0.2286  plane waves:    2870
 k-point 66 :   0.0000 0.0000 0.2429  plane waves:    2874
 k-point 67 :   0.0000 0.0000 0.2571  plane waves:    2866
 k-point 68 :   0.0000 0.0000 0.2714  plane waves:    2874
 k-point 69 :   0.0000 0.0000 0.2857  plane waves:    2874
 k-point 70 :   0.0000 0.0000 0.3000  plane waves:    2874
 k-point 71 :   0.0000 0.0000 0.3143  plane waves:    2874
 k-point 72 :   0.0000 0.0000 0.3286  plane waves:    2874
 k-point 73 :   0.0000 0.0000 0.3429  plane waves:    2882
 k-point 74 :   0.0000 0.0000 0.3571  plane waves:    2878
 k-point 75 :   0.0000 0.0000 0.3714  plane waves:    2894
 k-point 76 :   0.0000 0.0000 0.3857  plane waves:    2902
 k-point 77 :   0.0000 0.0000 0.4000  plane waves:    2894
 k-point 78 :   0.0000 0.0000 0.4143  plane waves:    2894
 k-point 79 :   0.0000 0.0000 0.4286  plane waves:    2890
 k-point 80 :   0.0000 0.0000 0.4429  plane waves:    2890
 k-point 81 :   0.0000 0.0000 0.4571  plane waves:    2886
 k-point 82 :   0.0000 0.0000 0.4714  plane waves:    2886
 k-point 83 :   0.0000 0.0000 0.4857  plane waves:    2886
 k-point 84 :   0.0000 0.0000 0.5000  plane waves:    2886

 maximum and minimum number of plane-waves per node :       380      345

 maximum number of plane-waves:      2902
 maximum index in each direction: 
   IXMAX=    7   IYMAX=    7   IZMAX=   11
   IXMIN=   -8   IYMIN=   -8   IZMIN=  -11


 real space projection operators:
  total allocation   :       2109.02 KBytes
  max/ min on nodes  :        275.24        258.95


 parallel 3D FFT for wavefunctions:
    minimum data exchange during FFTs selected (reduces bandwidth)
 parallel 3D FFT for charge:
    minimum data exchange during FFTs selected (reduces bandwidth)


 FFT grid for exact exchange (Hartree Fock) 
  NGX = 24; NGY = 24; NGZ = 36

 
 Radii for the augmentation spheres in the non-local exchange
 for species   1 augmentation radius   1.596 (default was   1.277)
       energy cutoff for augmentation   2000.0
 for species   2 augmentation radius   1.357 (default was   1.086)
       energy cutoff for augmentation   2000.0
 for species   3 augmentation radius   1.328 (default was   1.062)
       energy cutoff for augmentation   2000.0

 real space projection operators:
  total allocation   :       1922.66 KBytes
  max/ min on nodes  :        246.09        236.33

 Maximum index for augmentation-charges in exchange          414
  SETUP_FOCK is finished

 total amount of memory used by VASP MPI-rank0    41306. kBytes
=======================================================================

   base      :      30000. kBytes
   nonlr-proj:       1207. kBytes
   fftplans  :        751. kBytes
   grid      :       1046. kBytes
   one-center:         15. kBytes
   HF        :         64. kBytes
   wavefun   :       8223. kBytes
 
     INWAV:  cpu time    0.0000: real time    0.0001
 Broyden mixing: mesh for mixing (old mesh)
   NGX = 15   NGY = 15   NGZ = 23
  (NGX  = 64   NGY  = 64   NGZ  = 96)
  gives a total of   5175 points

 initial charge density was supplied:
 charge density of overlapping atoms calculated
 number of electron      26.0000000 magnetization 
 keeping initial charge density in first step


--------------------------------------------------------------------------------------------------------


 Maximum index for non-local projection operator          678
 Maximum index for augmentation-charges         1186 (set IRDMAX)


--------------------------------------------------------------------------------------------------------


 First call to EWALD:  gamma=   0.366
 Maximum number of real-space cells 3x 3x 2
 Maximum number of reciprocal cells 2x 2x 3

    FEWALD:  cpu time    0.0015: real time    0.0015


--------------------------------------- Iteration      1(   1)  ---------------------------------------


    POTLOK:  cpu time    0.0254: real time    0.0255
    SETDIJ:  cpu time    0.1906: real time    0.1908
    TRIAL :  cpu time    1.0298: real time    1.0318
    CORREC:  cpu time    0.0011: real time    0.0011
    --------------------------------------------
      LOOP:  cpu time    1.2479: real time    1.2638

 eigenvalue-minimisations  :  4216
 total energy-change (2. order) : 0.3088705E+03  (-0.9945936E+03)
 number of electron      26.0000000 magnetization 
 augmentation part       26.0000000 magnetization 

 Free energy of the ion-electron system (eV)
  ---------------------------------------------------
  alpha Z        PSCENC =        64.20128509
  Ewald energy   TEWEN  =     -1439.91766544
  -Hartree energ DENC   =      -749.41397116
  -exchange      EXHF   =         0.00000000
  -V(xc)+E(xc)   XCENC  =        -4.09882595
  PAW double counting   =      1947.71887434    -1859.61130231
  entropy T*S    EENTRO =        -0.00589056
  eigenvalues    EBANDS =       106.17557742
  atomic energy  EATOM  =      2243.82239720
  ---------------------------------------------------
  free energy    TOTEN  =       308.87047863 eV

  energy without entropy =      308.87636919  energy(sigma->0) =      308.87342391
  exchange ACFDT corr.  =         0.00000000  see jH, gK, PRB 81, 115126


--------------------------------------------------------------------------------------------------------




--------------------------------------- Iteration      1(   2)  ---------------------------------------


    TRIAL :  cpu time    1.3841: real time    1.3860
    CORREC:  cpu time    0.0010: real time    0.0010
    --------------------------------------------
      LOOP:  cpu time    1.3855: real time    1.3920

 eigenvalue-minimisations  :  6048
 total energy-change (2. order) :-0.2061336E+03  (-0.2005728E+03)
 number of electron      26.0000000 magnetization 
 augmentation part       26.0000000 magnetization 

 Free energy of the ion-electron system (eV)
  ---------------------------------------------------
  alpha Z        PSCENC =        64.20128509
  Ewald energy   TEWEN  =     -1439.91766544
  -Hartree energ DENC   =      -749.41397116
  -exchange      EXHF   =         0.00000000
  -V(xc)+E(xc)   XCENC  =        -4.09882595
  PAW double counting   =      1947.71887434    -1859.61130231
  entropy T*S    EENTRO =        -0.00120736
  eigenvalues    EBANDS =       -99.96268297
  atomic energy  EATOM  =      2243.82239720
  ---------------------------------------------------
  free energy    TOTEN  =       102.73690144 eV

  energy without entropy =      102.73810880  energy(sigma->0) =      102.73750512
  exchange ACFDT corr.  =         0.00000000  see jH, gK, PRB 81, 115126


--------------------------------------------------------------------------------------------------------




--------------------------------------- Iteration      1(   3)  ---------------------------------------


    TRIAL :  cpu time    1.2547: real time    1.2564
    CORREC:  cpu time    0.0010: real time    0.0010
    --------------------------------------------
      LOOP:  cpu time    1.2563: real time    1.2581

 eigenvalue-minimisations  :  5376
 total energy-change (2. order) :-0.5181225E+02  (-0.5010922E+02)
 number of electron      26.0000000 magnetization 
 augmentation part       26.0000000 magnetization 

 Free energy of the ion-electron system (eV)
  ---------------------------------------------------
  alpha Z        PSCENC =        64.20128509
  Ewald energy   TEWEN  =     -1439.91766544
  -Hartree energ DENC   =      -749.41397116
  -exchange      EXHF   =         0.00000000
  -V(xc)+E(xc)   XCENC  =        -4.09882595
  PAW double counting   =      1947.71887434    -1859.61130231
  entropy T*S    EENTRO =        -0.00221846
  eigenvalues    EBANDS =      -151.77391812
  atomic energy  EATOM  =      2243.82239720
  ---------------------------------------------------
  free energy    TOTEN  =        50.92465519 eV

  energy without entropy =       50.92687365  energy(sigma->0) =       50.92576442
  exchange ACFDT corr.  =         0.00000000  see jH, gK, PRB 81, 115126


--------------------------------------------------------------------------------------------------------




--------------------------------------- Iteration      1(   4)  ---------------------------------------


    TRIAL :  cpu time    1.4531: real time    1.4551
    CORREC:  cpu time    0.0011: real time    0.0011
    --------------------------------------------
      LOOP:  cpu time    1.4544: real time    1.4565

 eigenvalue-minimisations  :  6336
 total energy-change (2. order) :-0.1534327E+02  (-0.1506305E+02)
 number of electron      26.0000000 magnetization 
 augmentation part       26.0000000 magnetization 

 Free energy of the ion-electron system (eV)
  ---------------------------------------------------
  alpha Z        PSCENC =        64.20128509
  Ewald energy   TEWEN  =     -1439.91766544
  -Hartree energ DENC   =      -749.41397116
  -exchange      EXHF   =         0.00000000
  -V(xc)+E(xc)   XCENC  =        -4.09882595
  PAW double counting   =      1947.71887434    -1859.61130231
  entropy T*S    EENTRO =        -0.00331460
  eigenvalues    EBANDS =      -167.11609309
  atomic energy  EATOM  =      2243.82239720
  ---------------------------------------------------
  free energy    TOTEN  =        35.58138408 eV

  energy without entropy =       35.58469868  energy(sigma->0) =       35.58304138
  exchange ACFDT corr.  =         0.00000000  see jH, gK, PRB 81, 115126


--------------------------------------------------------------------------------------------------------




--------------------------------------- Iteration      1(   5)  ---------------------------------------


    TRIAL :  cpu time    1.4979: real time    1.5000
    CORREC:  cpu time    0.0009: real time    0.0009
    CHARGE:  cpu time    0.0498: real time    0.0499
    --------------------------------------------
      LOOP:  cpu time    1.5495: real time    1.5518

 eigenvalue-minimisations  :  6640
 total energy-change (2. order) :-0.3259083E+01  (-0.3179054E+01)
 number of electron      26.0000008 magnetization 
 augmentation part        4.1852846 magnetization 

 Free energy of the ion-electron system (eV)
  ---------------------------------------------------
  alpha Z        PSCENC =        64.20128509
  Ewald energy   TEWEN  =     -1439.91766544
  -Hartree energ DENC   =      -749.41397116
  -exchange      EXHF   =         0.00000000
  -V(xc)+E(xc)   XCENC  =        -4.09882595
  PAW double counting   =      1947.71887434    -1859.61130231
  entropy T*S    EENTRO =        -0.00063823
  eigenvalues    EBANDS =      -170.37785281
  atomic energy  EATOM  =      2243.82239720
  ---------------------------------------------------
  free energy    TOTEN  =        32.32230073 eV

  energy without entropy =       32.32293896  energy(sigma->0) =       32.32261985
  exchange ACFDT corr.  =         0.00000000  see jH, gK, PRB 81, 115126


--------------------------------------------------------------------------------------------------------




--------------------------------------- Iteration      1(   6)  ---------------------------------------


    POTLOK:  cpu time    0.0243: real time    0.0244
    SETDIJ:  cpu time    0.1882: real time    0.1884
    TRIAL :  cpu time  128.4903: real time  128.6582
    CORREC:  cpu time    0.0009: real time    0.0009
    CHARGE:  cpu time    0.0497: real time    0.0498
    --------------------------------------------
      LOOP:  cpu time  128.7539: real time  128.9221

 eigenvalue-minimisations  :     0
 total energy-change (2. order) :-0.4752405E+02  (-0.2846925E+01)
 number of electron      26.0000009 magnetization 
 augmentation part        4.3901266 magnetization 

 Free energy of the ion-electron system (eV)
  ---------------------------------------------------
  alpha Z        PSCENC =        64.20128509
  Ewald energy   TEWEN  =     -1439.91766544
  -Hartree energ DENC   =      -723.57673565
  -exchange      EXHF   =        47.97374413
  -V(xc)+E(xc)   XCENC  =        -4.08818812
  PAW double counting   =      2678.44988983    -2591.16455824
  entropy T*S    EENTRO =        -0.00000749
  eigenvalues    EBANDS =      -290.90128099
  atomic energy  EATOM  =      2243.82239720
  ---------------------------------------------------
  free energy    TOTEN  =       -15.20175042 eV

  energy without entropy =      -15.20174293  energy(sigma->0) =      -15.20174668
  exchange ACFDT corr.  =        -0.00022264  see jH, gK, PRB 81, 115126


--------------------------------------------------------------------------------------------------------




--------------------------------------- Iteration      1(   7)  ---------------------------------------


    POTLOK:  cpu time    0.0281: real time    0.0281
    SETDIJ:  cpu time    0.1868: real time    0.1869
    TRIAL :  cpu time  128.6131: real time  128.7738
    CORREC:  cpu time    0.0007: real time    0.0007
    CHARGE:  cpu time    0.0504: real time    0.0504
    --------------------------------------------
      LOOP:  cpu time  128.8805: real time  129.0470

 eigenvalue-minimisations  :     0
 total energy-change (2. order) :-0.1220552E+01  (-0.1333575E+01)
 number of electron      26.0000008 magnetization 
 augmentation part        4.1977658 magnetization 

 Free energy of the ion-electron system (eV)
  ---------------------------------------------------
  alpha Z        PSCENC =        64.20128509
  Ewald energy   TEWEN  =     -1439.91766544
  -Hartree energ DENC   =      -762.45748134
  -exchange      EXHF   =        48.96515325
  -V(xc)+E(xc)   XCENC  =        -3.10047429
  PAW double counting   =      2707.42990881    -2619.79883625
  entropy T*S    EENTRO =        -0.00000004
  eigenvalues    EBANDS =      -255.56658206
  atomic energy  EATOM  =      2243.82239720
  ---------------------------------------------------
  free energy    TOTEN  =       -16.42230253 eV

  energy without entropy =      -16.42230250  energy(sigma->0) =      -16.42230251
  exchange ACFDT corr.  =        -0.00000183  see jH, gK, PRB 81, 115126


--------------------------------------------------------------------------------------------------------




--------------------------------------- Iteration      1(   8)  ---------------------------------------


    POTLOK:  cpu time    0.0284: real time    0.0285
    SETDIJ:  cpu time    0.1866: real time    0.1867
    TRIAL :  cpu time  128.6020: real time  128.7605
    CORREC:  cpu time    0.0006: real time    0.0006
    CHARGE:  cpu time    0.0502: real time    0.0502
    --------------------------------------------
      LOOP:  cpu time  128.8691: real time  129.0312

 eigenvalue-minimisations  :     0
 total energy-change (2. order) :-0.8091272E+00  (-0.2689575E+00)
 number of electron      26.0000008 magnetization 
 augmentation part        4.1125873 magnetization 

 Free energy of the ion-electron system (eV)
  ---------------------------------------------------
  alpha Z        PSCENC =        64.20128509
  Ewald energy   TEWEN  =     -1439.91766544
  -Hartree energ DENC   =      -753.46350425
  -exchange      EXHF   =        48.94881353
  -V(xc)+E(xc)   XCENC  =        -3.36080197
  PAW double counting   =      2699.01593106    -2613.11961644
  entropy T*S    EENTRO =        -0.00000000
  eigenvalues    EBANDS =      -263.35826850
  atomic energy  EATOM  =      2243.82239720
  ---------------------------------------------------
  free energy    TOTEN  =       -17.23142975 eV

  energy without entropy =      -17.23142975  energy(sigma->0) =      -17.23142975
  exchange ACFDT corr.  =        -0.00000001  see jH, gK, PRB 81, 115126


--------------------------------------------------------------------------------------------------------




--------------------------------------- Iteration      1(   9)  ---------------------------------------


    POTLOK:  cpu time    0.0272: real time    0.0272
    SETDIJ:  cpu time    0.1869: real time    0.1870
    TRIAL :  cpu time  128.4696: real time  128.6308
    CORREC:  cpu time    0.0005: real time    0.0005
    CHARGE:  cpu time    0.0500: real time    0.0501
    --------------------------------------------
      LOOP:  cpu time  128.7350: real time  128.9003

 eigenvalue-minimisations  :     0
 total energy-change (2. order) :-0.1420004E+00  (-0.2356252E+00)
 number of electron      26.0000008 magnetization 
 augmentation part        4.1791077 magnetization 

 Free energy of the ion-electron system (eV)
  ---------------------------------------------------
  alpha Z        PSCENC =        64.20128509
  Ewald energy   TEWEN  =     -1439.91766544
  -Hartree energ DENC   =      -748.73376303
  -exchange      EXHF   =        48.92743482
  -V(xc)+E(xc)   XCENC  =        -3.49572995
  PAW double counting   =      2688.67885437    -2603.58772595
  entropy T*S    EENTRO =        -0.00000000
  eigenvalues    EBANDS =      -267.26851724
  atomic energy  EATOM  =      2243.82239720
  ---------------------------------------------------
  free energy    TOTEN  =       -17.37343013 eV

  energy without entropy =      -17.37343013  energy(sigma->0) =      -17.37343013
  exchange ACFDT corr.  =        -0.00000000  see jH, gK, PRB 81, 115126


--------------------------------------------------------------------------------------------------------




--------------------------------------- Iteration      1(  10)  ---------------------------------------


    POTLOK:  cpu time    0.0282: real time    0.0282
    SETDIJ:  cpu time    0.1865: real time    0.1866
    TRIAL :  cpu time  128.4376: real time  128.5981
    CORREC:  cpu time    0.0006: real time    0.0006
    CHARGE:  cpu time    0.0499: real time    0.0499
    --------------------------------------------
      LOOP:  cpu time  128.7041: real time  128.8686

 eigenvalue-minimisations  :     0
 total energy-change (2. order) :-0.1429363E+00  (-0.7785540E-01)
 number of electron      26.0000008 magnetization 
 augmentation part        4.1917184 magnetization 

 Free energy of the ion-electron system (eV)
  ---------------------------------------------------
  alpha Z        PSCENC =        64.20128509
  Ewald energy   TEWEN  =     -1439.91766544
  -Hartree energ DENC   =      -756.48407134
  -exchange      EXHF   =        49.10680092
  -V(xc)+E(xc)   XCENC  =        -3.29594446
  PAW double counting   =      2684.80418461    -2599.45427753
  entropy T*S    EENTRO =        -0.00000000
  eigenvalues    EBANDS =      -260.29907547
  atomic energy  EATOM  =      2243.82239720
  ---------------------------------------------------
  free energy    TOTEN  =       -17.51636643 eV

  energy without entropy =      -17.51636643  energy(sigma->0) =      -17.51636643
  exchange ACFDT corr.  =        -0.00000000  see jH, gK, PRB 81, 115126


--------------------------------------------------------------------------------------------------------




--------------------------------------- Iteration      1(  11)  ---------------------------------------


    POTLOK:  cpu time    0.0255: real time    0.0257
    SETDIJ:  cpu time    0.1868: real time    0.1869
    TRIAL :  cpu time  127.9860: real time  128.1469
    CORREC:  cpu time    0.0008: real time    0.0008
    CHARGE:  cpu time    0.0465: real time    0.0466
    --------------------------------------------
      LOOP:  cpu time  128.2476: real time  128.4137

 eigenvalue-minimisations  :     0
 total energy-change (2. order) :-0.6102479E-01  (-0.5085605E-01)
 number of electron      26.0000008 magnetization 
 augmentation part        4.1688773 magnetization 

 Free energy of the ion-electron system (eV)
  ---------------------------------------------------
  alpha Z        PSCENC =        64.20128509
  Ewald energy   TEWEN  =     -1439.91766544
  -Hartree energ DENC   =      -756.69021982
  -exchange      EXHF   =        49.12468724
  -V(xc)+E(xc)   XCENC  =        -3.28497871
  PAW double counting   =      2679.05850606    -2593.62272744
  entropy T*S    EENTRO =        -0.00000005
  eigenvalues    EBANDS =      -260.26867539
  atomic energy  EATOM  =      2243.82239720
  ---------------------------------------------------
  free energy    TOTEN  =       -17.57739122 eV

  energy without entropy =      -17.57739117  energy(sigma->0) =      -17.57739119
  exchange ACFDT corr.  =        -0.00000000  see jH, gK, PRB 81, 115126


--------------------------------------------------------------------------------------------------------




--------------------------------------- Iteration      1(  12)  ---------------------------------------


    POTLOK:  cpu time    0.0367: real time    0.0367
    SETDIJ:  cpu time    0.1868: real time    0.1869
    TRIAL :  cpu time  126.9908: real time  127.1515
    CORREC:  cpu time    0.0008: real time    0.0008
    CHARGE:  cpu time    0.0467: real time    0.0467
    --------------------------------------------
      LOOP:  cpu time  127.2630: real time  127.4274

 eigenvalue-minimisations  :     0
 total energy-change (2. order) :-0.3067512E-01  (-0.2169078E-01)
 number of electron      26.0000008 magnetization 
 augmentation part        4.1780324 magnetization 

 Free energy of the ion-electron system (eV)
  ---------------------------------------------------
  alpha Z        PSCENC =        64.20128509
  Ewald energy   TEWEN  =     -1439.91766544
  -Hartree energ DENC   =      -753.60265879
  -exchange      EXHF   =        49.07680270
  -V(xc)+E(xc)   XCENC  =        -3.36012401
  PAW double counting   =      2675.13925156    -2589.80113120
  entropy T*S    EENTRO =        -0.00000328
  eigenvalues    EBANDS =      -263.16622339
  atomic energy  EATOM  =      2243.82239720
  ---------------------------------------------------
  free energy    TOTEN  =       -17.60806634 eV

  energy without entropy =      -17.60806306  energy(sigma->0) =      -17.60806470
  exchange ACFDT corr.  =        -0.00000001  see jH, gK, PRB 81, 115126


--------------------------------------------------------------------------------------------------------




--------------------------------------- Iteration      1(  13)  ---------------------------------------


    POTLOK:  cpu time    0.0307: real time    0.0307
    SETDIJ:  cpu time    0.1872: real time    0.1873
    TRIAL :  cpu time  127.6907: real time  127.8530
    CORREC:  cpu time    0.0010: real time    0.0010
    CHARGE:  cpu time    0.0502: real time    0.0503
    --------------------------------------------
      LOOP:  cpu time  127.9605: real time  128.1268

 eigenvalue-minimisations  :     0
 total energy-change (2. order) :-0.1631896E-01  (-0.8866841E-02)
 number of electron      26.0000008 magnetization 
 augmentation part        4.1832439 magnetization 

 Free energy of the ion-electron system (eV)
  ---------------------------------------------------
  alpha Z        PSCENC =        64.20128509
  Ewald energy   TEWEN  =     -1439.91766544
  -Hartree energ DENC   =      -754.90619814
  -exchange      EXHF   =        49.11450065
  -V(xc)+E(xc)   XCENC  =        -3.32436060
  PAW double counting   =      2676.46397212    -2591.08255008
  entropy T*S    EENTRO =        -0.00004415
  eigenvalues    EBANDS =      -261.99576282
  atomic energy  EATOM  =      2243.82239720
  ---------------------------------------------------
  free energy    TOTEN  =       -17.62438530 eV

  energy without entropy =      -17.62434115  energy(sigma->0) =      -17.62436322
  exchange ACFDT corr.  =        -0.00000048  see jH, gK, PRB 81, 115126


--------------------------------------------------------------------------------------------------------




--------------------------------------- Iteration      1(  14)  ---------------------------------------


    POTLOK:  cpu time    0.0245: real time    0.0245
    SETDIJ:  cpu time    0.1867: real time    0.1868
    TRIAL :  cpu time  130.4037: real time  130.5680
    CORREC:  cpu time    0.0011: real time    0.0011
    CHARGE:  cpu time    0.0520: real time    0.0521
    --------------------------------------------
      LOOP:  cpu time  130.6686: real time  130.8396

 eigenvalue-minimisations  :     0
 total energy-change (2. order) :-0.6477450E-02  (-0.4991988E-02)
 number of electron      26.0000008 magnetization 
 augmentation part        4.1775155 magnetization 

 Free energy of the ion-electron system (eV)
  ---------------------------------------------------
  alpha Z        PSCENC =        64.20128509
  Ewald energy   TEWEN  =     -1439.91766544
  -Hartree energ DENC   =      -755.81958911
  -exchange      EXHF   =        49.14107021
  -V(xc)+E(xc)   XCENC  =        -3.29971624
  PAW double counting   =      2678.20464589    -2592.80817205
  entropy T*S    EENTRO =        -0.00018208
  eigenvalues    EBANDS =      -261.15507414
  atomic energy  EATOM  =      2243.82239720
  ---------------------------------------------------
  free energy    TOTEN  =       -17.63086275 eV

  energy without entropy =      -17.63068067  energy(sigma->0) =      -17.63077171
  exchange ACFDT corr.  =        -0.00000838  see jH, gK, PRB 81, 115126


--------------------------------------------------------------------------------------------------------




--------------------------------------- Iteration      1(  15)  ---------------------------------------


    POTLOK:  cpu time    0.0263: real time    0.0543
    SETDIJ:  cpu time    0.1682: real time    0.1867
    TRIAL :  cpu time  130.3797: real time  130.5510
    CORREC:  cpu time    0.0010: real time    0.0010
    CHARGE:  cpu time    0.0500: real time    0.0501
    --------------------------------------------
      LOOP:  cpu time  130.6258: real time  130.8479

 eigenvalue-minimisations  :     0
 total energy-change (2. order) :-0.3683816E-02  (-0.1928308E-02)
 number of electron      26.0000008 magnetization 
 augmentation part        4.1768261 magnetization 

 Free energy of the ion-electron system (eV)
  ---------------------------------------------------
  alpha Z        PSCENC =        64.20128509
  Ewald energy   TEWEN  =     -1439.91766544
  -Hartree energ DENC   =      -755.29877639
  -exchange      EXHF   =        49.13592160
  -V(xc)+E(xc)   XCENC  =        -3.31231149
  PAW double counting   =      2678.92204658    -2593.56326754
  entropy T*S    EENTRO =        -0.00037316
  eigenvalues    EBANDS =      -261.62399408
  atomic energy  EATOM  =      2243.82239720
[...]

 k-point    68 :       0.0000    0.0000    0.2714
  band No.  band energies     occupation 
      1     -21.4560      2.00000
      2     -21.4443      2.00000
      3     -21.4443      2.00000
      4     -21.4220      2.00000
      5     -21.4032      2.00000
      6     -10.4934      2.00000
      7      -9.2164      2.00000
      8      -3.6375      2.00000
      9      -0.1596      2.00000
     10       0.0731      2.00000
     11       0.0731      2.00000
     12       2.2076      2.00000
     13       2.2077      2.00000
     14       4.0723      0.00000
     15       4.8596      0.00000
     16       5.0193      0.00000
     17       6.1024      0.00000
     18       7.5405      0.00000
     19       7.5406      0.00000
     20      10.3968      0.00000

 k-point    69 :       0.0000    0.0000    0.2857
  band No.  band energies     occupation 
      1     -21.4560      2.00000
      2     -21.4443      2.00000
      3     -21.4443      2.00000
      4     -21.4220      2.00000
      5     -21.4032      2.00000
      6     -10.4692      2.00000
      7      -9.2598      2.00000
      8      -3.5532      2.00000
      9      -0.2832      2.00000
     10       0.0938      2.00000
     11       0.0938      2.00000
     12       2.1590      2.00000
     13       2.1591      2.00000
     14       4.0989      0.00000
     15       4.9108      0.00000
     16       5.0728      0.00000
     17       6.0805      0.00000
     18       7.6338      0.00000
     19       7.6338      0.00000
     20      10.2691      0.00000

 k-point    70 :       0.0000    0.0000    0.3000
  band No.  band energies     occupation 
      1     -21.4560      2.00000
      2     -21.4443      2.00000
      3     -21.4443      2.00000
      4     -21.4220      2.00000
      5     -21.4032      2.00000
      6     -10.4440      2.00000
      7      -9.3037      2.00000
      8      -3.4665      2.00000
      9      -0.4063      2.00000
     10       0.1147      2.00000
     11       0.1147      2.00000
     12       2.1112      2.00000
     13       2.1113      2.00000
     14       4.1228      0.00000
     15       4.9461      0.00000
     16       5.1384      0.00000
     17       6.0634      0.00000
     18       7.7290      0.00000
     19       7.7290      0.00000
     20      10.2480      0.00000

 k-point    71 :       0.0000    0.0000    0.3143
  band No.  band energies     occupation 
      1     -21.4560      2.00000
      2     -21.4443      2.00000
      3     -21.4443      2.00000
      4     -21.4220      2.00000
      5     -21.4032      2.00000
      6     -10.4178      2.00000
      7      -9.3477      2.00000
      8      -3.3773      2.00000
      9      -0.5287      2.00000
     10       0.1359      2.00000
     11       0.1359      2.00000
     12       2.0645      2.00000
     13       2.0646      2.00000
     14       4.1448      0.00000
     15       4.9690      0.00000
     16       5.2110      0.00000
     17       6.0515      0.00000
     18       7.8259      0.00000
     19       7.8260      0.00000
     20      10.2273      0.00000

 k-point    72 :       0.0000    0.0000    0.3286
  band No.  band energies     occupation 
      1     -21.4560      2.00000
      2     -21.4443      2.00000
      3     -21.4443      2.00000
      4     -21.4220      2.00000
      5     -21.4032      2.00000
      6     -10.3906      2.00000
      7      -9.3918      2.00000
      8      -3.2859      2.00000
      9      -0.6506      2.00000
     10       0.1570      2.00000
     11       0.1570      2.00000
     12       2.0193      2.00000
     13       2.0194      2.00000
     14       4.1653      0.00000
     15       4.9834      0.00000
     16       5.2855      0.00000
     17       6.0449      0.00000
     18       7.9244      0.00000
     19       7.9244      0.00000
     20      10.0448      0.00000

 k-point    73 :       0.0000    0.0000    0.3429
  band No.  band energies     occupation 
      1     -21.4560      2.00000
      2     -21.4443      2.00000
      3     -21.4443      2.00000
      4     -21.4220      2.00000
      5     -21.4032      2.00000
      6     -10.3625      2.00000
      7      -9.4357      2.00000
      8      -3.1924      2.00000
      9      -0.7718      2.00000
     10       0.1779      2.00000
     11       0.1779      2.00000
     12       1.9758      2.00000
     13       1.9759      2.00000
     14       4.1848      0.00000
     15       4.9914      0.00000
     16       5.3587      0.00000
     17       6.0434      0.00000
     18       8.0243      0.00000
     19       8.0243      0.00000
     20      10.3602      0.00000

 k-point    74 :       0.0000    0.0000    0.3571
  band No.  band energies     occupation 
      1     -21.4561      2.00000
      2     -21.4444      2.00000
      3     -21.4443      2.00000
      4     -21.4220      2.00000
      5     -21.4032      2.00000
      6     -10.3337      2.00000
      7      -9.4793      2.00000
      8      -3.0970      2.00000
      9      -0.8924      2.00000
     10       0.1984      2.00000
     11       0.1984      2.00000
     12       1.9344      2.00000
     13       1.9345      2.00000
     14       4.2033      0.00000
     15       4.9945      0.00000
     16       5.4287      0.00000
     17       6.0467      0.00000
     18       8.1252      0.00000
     19       8.1253      0.00000
     20       9.8950      0.00000

 k-point    75 :       0.0000    0.0000    0.3714
  band No.  band energies     occupation 
      1     -21.4561      2.00000
      2     -21.4444      2.00000
      3     -21.4443      2.00000
      4     -21.4220      2.00000
      5     -21.4033      2.00000
      6     -10.3041      2.00000
      7      -9.5224      2.00000
      8      -2.9996      2.00000
      9      -1.0123      2.00000
     10       0.2182      2.00000
     11       0.2182      2.00000
     12       1.8954      2.00000
     13       1.8955      2.00000
     14       4.2209      0.00000
     15       4.9935      0.00000
     16       5.4941      0.00000
     17       6.0541      0.00000
     18       8.2272      0.00000
     19       8.2272      0.00000
     20       9.7945      0.00000

 k-point    76 :       0.0000    0.0000    0.3857
  band No.  band energies     occupation 
      1     -21.4561      2.00000
      2     -21.4444      2.00000
      3     -21.4443      2.00000
      4     -21.4220      2.00000
      5     -21.4033      2.00000
      6     -10.2741      2.00000
      7      -9.5648      2.00000
      8      -2.9004      2.00000
      9      -1.1313      2.00000
     10       0.2370      2.00000
     11       0.2371      2.00000
     12       1.8592      2.00000
     13       1.8593      2.00000
     14       4.2376      0.00000
     15       4.9893      0.00000
     16       5.5541      0.00000
     17       6.0649      0.00000
     18       8.3298      0.00000
     19       8.7444      0.00000
     20       9.8633      0.00000

 k-point    77 :       0.0000    0.0000    0.4000
  band No.  band energies     occupation 
      1     -21.4561      2.00000
      2     -21.4444      2.00000
      3     -21.4443      2.00000
      4     -21.4220      2.00000
      5     -21.4032      2.00000
      6     -10.2438      2.00000
      7      -9.6061      2.00000
      8      -2.7996      2.00000
      9      -1.2496      2.00000
     10       0.2547      2.00000
     11       0.2547      2.00000
     12       1.8261      2.00000
     13       1.8262      2.00000
     14       4.2532      0.00000
     15       4.9830      0.00000
     16       5.6080      0.00000
     17       6.0780      0.00000
     18       8.4328      0.00000
     19       8.4328      0.00000
     20       9.7386      0.00000

 k-point    78 :       0.0000    0.0000    0.4143
  band No.  band energies     occupation 
      1     -21.4561      2.00000
      2     -21.4444      2.00000
      3     -21.4443      2.00000
      4     -21.4219      2.00000
      5     -21.4032      2.00000
      6     -10.2136      2.00000
      7      -9.6460      2.00000
      8      -2.6971      2.00000
      9      -1.3671      2.00000
     10       0.2708      2.00000
     11       0.2708      2.00000
     12       1.7965      2.00000
     13       1.7965      2.00000
     14       4.2676      0.00000
     15       4.9752      0.00000
     16       5.6554      0.00000
     17       6.0923      0.00000
     18       8.5364      0.00000
     19       8.8027      0.00000
     20       9.6712      0.00000

 k-point    79 :       0.0000    0.0000    0.4286
  band No.  band energies     occupation 
      1     -21.4561      2.00000
      2     -21.4444      2.00000
      3     -21.4443      2.00000
      4     -21.4219      2.00000
      5     -21.4032      2.00000
      6     -10.1839      2.00000
      7      -9.6840      2.00000
      8      -2.5932      2.00000
      9      -1.4837      2.00000
     10       0.2851      2.00000
     11       0.2851      2.00000
     12       1.7706      2.00000
     13       1.7707      2.00000
     14       4.2805      0.00000
     15       4.9668      0.00000
     16       5.6960      0.00000
     17       6.1067      0.00000
     18       8.6384      0.00000
     19       8.8980      0.00000
     20       9.6995      0.00000

 k-point    80 :       0.0000    0.0000    0.4429
  band No.  band energies     occupation 
      1     -21.4561      2.00000
      2     -21.4444      2.00000
      3     -21.4443      2.00000
      4     -21.4219      2.00000
      5     -21.4032      2.00000
      6     -10.1554      2.00000
      7      -9.7192      2.00000
      8      -2.4878      2.00000
      9      -1.5994      2.00000
     10       0.2973      2.00000
     11       0.2973      2.00000
     12       1.7489      2.00000
     13       1.7490      2.00000
     14       4.2917      0.00000
     15       4.9587      0.00000
     16       5.7294      0.00000
     17       6.1202      0.00000
     18       8.7391      0.00000
     19       8.9665      0.00000
     20       9.6793      0.00000

 k-point    81 :       0.0000    0.0000    0.4571
  band No.  band energies     occupation 
      1     -21.4561      2.00000
      2     -21.4444      2.00000
      3     -21.4443      2.00000
      4     -21.4219      2.00000
      5     -21.4032      2.00000
      6     -10.1295      2.00000
      7      -9.7504      2.00000
      8      -2.3811      2.00000
      9      -1.7141      2.00000
     10       0.3071      2.00000
     11       0.3072      2.00000
     12       1.7317      2.00000
     13       1.7317      2.00000
     14       4.3008      0.00000
     15       4.9515      0.00000
     16       5.7556      0.00000
     17       6.1316      0.00000
     18       8.8364      0.00000
     19       8.8942      0.00000
     20       9.6211      0.00000

 k-point    82 :       0.0000    0.0000    0.4714
  band No.  band energies     occupation 
      1     -21.4561      2.00000
      2     -21.4444      2.00000
      3     -21.4443      2.00000
      4     -21.4219      2.00000
      5     -21.4032      2.00000
      6     -10.1079      2.00000
      7      -9.7759      2.00000
      8      -2.2731      2.00000
      9      -1.8277      2.00000
     10       0.3143      2.00000
     11       0.3144      2.00000
     12       1.7191      2.00000
     13       1.7192      2.00000
     14       4.3075      0.00000
     15       4.9459      0.00000
     16       5.7744      0.00000
     17       6.1404      0.00000
     18       8.9262      0.00000
     19       9.0090      0.00000
     20       9.5497      0.00000

 k-point    83 :       0.0000    0.0000    0.4857
  band No.  band energies     occupation 
      1     -21.4561      2.00000
      2     -21.4444      2.00000
      3     -21.4443      2.00000
      4     -21.4219      2.00000
      5     -21.4032      2.00000
      6     -10.0931      2.00000
      7      -9.7929      2.00000
      8      -2.1643      2.00000
      9      -1.9400      2.00000
     10       0.3187      2.00000
     11       0.3188      2.00000
     12       1.7116      2.00000
     13       1.7116      2.00000
     14       4.3117      0.00000
     15       4.9424      0.00000
     16       5.7857      0.00000
     17       6.1459      0.00000
     18       8.9956      0.00000
     19       9.1474      0.00000
     20       9.4670      0.00000

 k-point    84 :       0.0000    0.0000    0.5000
  band No.  band energies     occupation 
      1     -21.4561      2.00000
      2     -21.4444      2.00000
      3     -21.4443      2.00000
      4     -21.4219      2.00000
      5     -21.4032      2.00000
      6     -10.0878      2.00000
      7      -9.7990      2.00000
      8      -2.0677      2.00000
      9      -2.0377      2.00000
     10       0.3202      2.00000
     11       0.3202      2.00000
     12       1.7090      2.00000
     13       1.7091      2.00000
     14       4.3131      0.00000
     15       4.9411      0.00000
     16       5.7895      0.00000
     17       6.1477      0.00000
     18       9.0482      0.00000
     19       9.0882      0.00000
     20       9.4555      0.00000


--------------------------------------------------------------------------------------------------------


 soft charge-density along one line, spin component           1
         0         1         2         3         4         5         6         7         8         9
 total charge-density along one line
 
 pseudopotential strength for first ion, spin component:           1
  4.554   5.392   0.000  -0.007   0.000   0.000  -0.014   0.000
  5.392   6.368   0.000  -0.009   0.000   0.000  -0.017   0.000
  0.000   0.000   1.046  -0.000   0.000   1.734  -0.000   0.000
 -0.007  -0.009  -0.000   1.048  -0.000  -0.000   1.737  -0.000
  0.000   0.000   0.000  -0.000   1.048   0.000  -0.000   1.738
  0.000   0.000   1.734  -0.000   0.000   2.878  -0.000   0.000
 -0.014  -0.017  -0.000   1.737  -0.000  -0.000   2.884  -0.000
  0.000   0.000   0.000  -0.000   1.738   0.000  -0.000   2.885
  0.000   0.000   0.000   0.000   0.000   0.000   0.000   0.000
 -0.000  -0.000  -0.001   0.000   0.000  -0.002   0.000   0.000
  0.001   0.001  -0.000  -0.002  -0.000  -0.000  -0.004  -0.000
 -0.000  -0.000   0.000   0.000  -0.001   0.000   0.000  -0.002
  0.004   0.005  -0.000   0.000   0.000  -0.000  -0.000   0.000
 total augmentation occupancy for first ion, spin component:           1
  6.415  -2.870  -0.000   0.015  -0.000   0.000  -0.007   0.000  -0.000   0.000   0.000  -0.000  -0.039
 -2.870   1.384  -0.000   0.044   0.000   0.000  -0.006  -0.000   0.000   0.000   0.000   0.000   0.022
 -0.000  -0.000   2.525  -0.000   0.000  -0.615   0.000  -0.000   0.000  -0.256  -0.000   0.000   0.000
  0.015   0.044  -0.000   2.387  -0.000   0.000  -0.567   0.000  -0.000   0.000   0.036  -0.000   0.245
 -0.000   0.000   0.000  -0.000   2.310  -0.000   0.000  -0.527   0.000  -0.000   0.000   0.234  -0.000
  0.000   0.000  -0.615   0.000  -0.000   0.155  -0.000   0.000  -0.000   0.063   0.000  -0.000   0.000
 -0.007  -0.006   0.000  -0.567   0.000  -0.000   0.141  -0.000   0.000  -0.000  -0.008   0.000  -0.058
  0.000  -0.000  -0.000   0.000  -0.527   0.000  -0.000   0.128  -0.000   0.000  -0.000  -0.053   0.000
 -0.000   0.000   0.000  -0.000   0.000  -0.000   0.000  -0.000   0.011  -0.000   0.000   0.000  -0.000
  0.000   0.000  -0.256   0.000  -0.000   0.063  -0.000   0.000  -0.000   0.041   0.000  -0.000   0.000
  0.000   0.000  -0.000   0.036   0.000   0.000  -0.008  -0.000   0.000   0.000   0.011   0.000   0.005
 -0.000   0.000   0.000  -0.000   0.234  -0.000   0.000  -0.053   0.000  -0.000   0.000   0.039  -0.000
 -0.039   0.022   0.000   0.245  -0.000   0.000  -0.058   0.000  -0.000   0.000   0.005  -0.000   0.040


------------------------ aborting loop because EDIFF is reached ----------------------------------------


    FORLOC:  cpu time    0.0034: real time    0.0035
    FORHF :  cpu time  163.9205: real time  164.1651
    FORNL :  cpu time    0.1975: real time    0.1977
    FORCOR:  cpu time    0.2099: real time    0.2103
    OFIELD:  cpu time    0.0001: real time    0.0001

 VOLUME and BASIS-vectors are now :
 -----------------------------------------------------------------------------
  energy-cutoff  :      500.00
  volume of cell :      113.64
      direct lattice vectors                 reciprocal lattice vectors
     4.300140858  0.000000000  0.000000000     0.232550522  0.000000000  0.000000000
     0.000000000  4.300140858  0.000000000     0.000000000  0.232550522  0.000000000
     0.000000000  0.000000000  6.145861149     0.000000000  0.000000000  0.162711128

  length of vectors
     4.300140858  4.300140858  6.145861149     0.232550522  0.232550522  0.162711128


 FORCES acting on ions:
    Electron-Ion                     Ewald-Force                    Non-Local-Force
 -----------------------------------------------------------------------------------------------
   -.264E-06 -.398E-07 0.477E+02   0.261E-14 -.178E-15 -.473E+02   0.000E+00 0.000E+00 -.392E+00
   -.141E-06 -.131E-07 -.477E+02   -.168E-14 -.547E-14 0.473E+02   0.000E+00 -.434E-18 0.392E+00
   0.852E-06 -.154E-05 -.529E-03   -.341E-14 0.631E-14 0.425E-05   0.000E+00 0.000E+00 0.000E+00
   0.262E-06 -.219E-06 -.611E-04   0.139E-14 0.780E-16 0.515E-06   -.347E-17 0.000E+00 0.000E+00
 -----------------------------------------------------------------------------------------------
   0.697E-06 -.187E-05 -.326E-03   -.109E-14 0.740E-15 -.355E-14   -.347E-17 -.434E-18 0.000E+00
 
 
 POSITION                                       TOTAL-FORCE (eV/Angst)
 -----------------------------------------------------------------------------------
      2.15007      0.00000      4.46027         0.000000      0.000000      0.066106
      0.00000      2.15007      1.68559        -0.000000      0.000000     -0.066106
      0.00000      0.00000      0.00000        -0.000000      0.000000      0.000000
      2.15007      2.15007      3.07293        -0.000000     -0.000000      0.000000
 -----------------------------------------------------------------------------------
    total drift:                                0.000001     -0.000002     -0.000326


--------------------------------------------------------------------------------------------------------



  FREE ENERGIE OF THE ION-ELECTRON SYSTEM (eV)
  ---------------------------------------------------
  free  energy   TOTEN  =       -17.63789937 eV

  energy  without entropy=      -17.63714677  energy(sigma->0) =      -17.63752307
 


--------------------------------------------------------------------------------------------------------


    POTLOK:  cpu time    0.2089: real time    0.2091


--------------------------------------------------------------------------------------------------------


     LOOP+:  cpu time 4075.4783: real time 4081.3774
    4ORBIT:  cpu time    0.0000: real time    0.0000

 total amount of memory used by VASP MPI-rank0    41954. kBytes
=======================================================================

   base      :      30000. kBytes
   nonlr-proj:       1855. kBytes
   fftplans  :        751. kBytes
   grid      :       1046. kBytes
   one-center:         15. kBytes
   HF        :         64. kBytes
   wavefun   :       8223. kBytes
 
  
  
 General timing and accounting informations for this job:
 ========================================================
  
                  Total CPU time used (sec):     4109.312
                            User time (sec):     4108.626
                          System time (sec):        0.686
                         Elapsed time (sec):     4115.567
  
                   Maximum memory used (kb):      185036.
                   Average memory used (kb):           0.
  
                          Minor page faults:       148217
                          Major page faults:            2
                 Voluntary context switches:          908
