 running on   32 total cores
 distrk:  each k-point on   32 cores,    1 groups
 distr:  one band on    8 cores,    4 groups
 using from now: INCAR     
 vasp.5.4.4.18Apr17-6-g9f103f2a35 (build Dec 27 2023 19:01:38) complex          
  
 POSCAR found type information on POSCAR  Ga Bi As
 POSCAR found :  3 types and       4 ions
 scaLAPACK will be used

 ----------------------------------------------------------------------------- 
|                                                                             |
|  ADVICE TO THIS USER RUNNING 'VASP/VAMP'   (HEAR YOUR MASTER'S VOICE ...):  |
|                                                                             |
|      You have a (more or less) 'small supercell' and for smaller cells      |
|      it is recommended  to use the reciprocal-space projection scheme!      |
|      The real space optimization is not  efficient for small cells and it   |
|      is also less accurate ...                                              |
|      Therefore set LREAL=.FALSE. in the  INCAR file                         |
|                                                                             |
 ----------------------------------------------------------------------------- 

 LDA part: xc-table for Pade appr. of Perdew

 ----------------------------------------------------------------------------- 
|                                                                             |
|           W    W    AA    RRRRR   N    N  II  N    N   GGGG   !!!           |
|           W    W   A  A   R    R  NN   N  II  NN   N  G    G  !!!           |
|           W    W  A    A  R    R  N N  N  II  N N  N  G       !!!           |
|           W WW W  AAAAAA  RRRRR   N  N N  II  N  N N  G  GGG   !            |
|           WW  WW  A    A  R   R   N   NN  II  N   NN  G    G                |
|           W    W  A    A  R    R  N    N  II  N    N   GGGG   !!!           |
|                                                                             |
|      Your generating k-point grid is not commensurate to the symmetry       |
|      of the lattice.  This can cause   slow convergence with respect        |
|      to k-points for HF type calculations                                   |
|      suggested SOLUTIONS:                                                   |
|       ) if not already the case, use automatic k-point generation           |
|       ) shift your grid to Gamma (G) (e.g. required for hex or fcc lattice) |
|                                                                             |
 ----------------------------------------------------------------------------- 

 POSCAR, INCAR and KPOINTS ok, starting setup
 FFT: planning ...
 WAVECAR not read
 entering main loop
       N       E                     dE             d eps       ncg     rms          ort
DAV:   1     0.308870478626E+03    0.30887E+03   -0.99459E+03  1680   0.123E+03
DAV:   2     0.102736901436E+03   -0.20613E+03   -0.20057E+03  1680   0.354E+02
DAV:   3     0.509246551875E+02   -0.51812E+02   -0.50109E+02  1680   0.187E+02
DAV:   4     0.355813840824E+02   -0.15343E+02   -0.15063E+02  1680   0.996E+01
DAV:   5     0.323223007330E+02   -0.32591E+01   -0.31791E+01  1680   0.393E+01
 gam= 0.000 g(H,U,f)=  0.678E+01 0.309E+00 0.242E-01 ort(H,U,f) = 0.000E+00 0.000E+00 0.000E+00
SDA:   6    -0.152017504229E+02   -0.47524E+02   -0.28469E+01  1680   0.712E+01 0.000E+00
 gam= 0.382 g(H,U,f)=  0.359E+01 0.112E+00 0.365E-04 ort(H,U,f) =-0.108E+01 0.106E+00 0.109E-03
DMP:   7    -0.164223025329E+02   -0.12206E+01   -0.13336E+01  1680   0.371E+01-0.973E+00
 gam= 0.382 g(H,U,f)=  0.315E+00 0.130E+00 0.135E-06 ort(H,U,f) = 0.448E+00 0.149E+00 0.371E-06
DMP:   8    -0.172314297463E+02   -0.80913E+00   -0.26896E+00  1680   0.444E+00 0.597E+00
 gam= 0.382 g(H,U,f)=  0.510E+00 0.984E-01 0.345E-09 ort(H,U,f) =-0.206E+00 0.155E+00 0.855E-09
DMP:   9    -0.173734301347E+02   -0.14200E+00   -0.23563E+00  1680   0.608E+00-0.508E-01
 gam= 0.382 g(H,U,f)=  0.109E+00 0.535E-01 0.231E-10 ort(H,U,f) =-0.242E-01 0.109E+00 0.599E-10
DMP:  10    -0.175163664305E+02   -0.14294E+00   -0.77855E-01  1680   0.162E+00 0.850E-01
 gam= 0.382 g(H,U,f)=  0.608E-01 0.303E-01 0.612E-09 ort(H,U,f) = 0.225E-01 0.717E-01 0.141E-08
DMP:  11    -0.175773912176E+02   -0.61025E-01   -0.50856E-01  1680   0.912E-01 0.942E-01
 gam= 0.382 g(H,U,f)=  0.300E-01 0.163E-01 0.188E-06 ort(H,U,f) =-0.223E-01 0.431E-01 0.491E-06
DMP:  12    -0.176080663380E+02   -0.30675E-01   -0.21691E-01  1680   0.463E-01 0.207E-01
 gam= 0.382 g(H,U,f)=  0.444E-02 0.786E-02 0.861E-05 ort(H,U,f) = 0.246E-02 0.233E-01 0.251E-04
DMP:  13    -0.176243852971E+02   -0.16319E-01   -0.88668E-02  1680   0.123E-01 0.258E-01
 gam= 0.382 g(H,U,f)=  0.497E-02 0.364E-02 0.637E-04 ort(H,U,f) =-0.187E-02 0.116E-01 0.202E-03
DMP:  14    -0.176308627469E+02   -0.64774E-02   -0.49920E-02  1680   0.868E-02 0.996E-02
 gam= 0.382 g(H,U,f)=  0.810E-03 0.161E-02 0.130E-03 ort(H,U,f) =-0.204E-05 0.552E-02 0.439E-03
DMP:  15    -0.176345465629E+02   -0.36838E-02   -0.19283E-02  1680   0.255E-02 0.596E-02
 gam= 0.382 g(H,U,f)=  0.633E-03 0.681E-03 0.128E-03 ort(H,U,f) = 0.582E-04 0.247E-02 0.441E-03
DMP:  16    -0.176361387108E+02   -0.15921E-02   -0.10296E-02  1680   0.144E-02 0.297E-02
 gam= 0.382 g(H,U,f)=  0.142E-03 0.275E-03 0.882E-04 ort(H,U,f) = 0.590E-04 0.104E-02 0.301E-03
DMP:  17    -0.176369959242E+02   -0.85721E-03   -0.41701E-03  1680   0.506E-03 0.140E-02
 gam= 0.382 g(H,U,f)=  0.102E-03 0.110E-03 0.522E-04 ort(H,U,f) = 0.287E-04 0.425E-03 0.173E-03
DMP:  18    -0.176373915758E+02   -0.39565E-03   -0.20148E-03  1680   0.264E-03 0.626E-03
 gam= 0.382 g(H,U,f)=  0.289E-04 0.445E-04 0.291E-04 ort(H,U,f) =-0.271E-05 0.169E-03 0.926E-04
DMP:  19    -0.176375965999E+02   -0.20502E-03   -0.80627E-04  1680   0.103E-03 0.259E-03
 gam= 0.382 g(H,U,f)=  0.128E-04 0.189E-04 0.160E-04 ort(H,U,f) = 0.993E-05 0.682E-04 0.489E-04
DMP:  20    -0.176377058249E+02   -0.10922E-03   -0.38513E-04  1680   0.478E-04 0.127E-03
 gam= 0.382 g(H,U,f)=  0.531E-05 0.867E-05 0.885E-05 ort(H,U,f) = 0.271E-05 0.286E-04 0.260E-04
DMP:  21    -0.176377704350E+02   -0.64610E-04   -0.17891E-04  1680   0.228E-04 0.573E-04
 gam= 0.382 g(H,U,f)=  0.241E-05 0.441E-05 0.493E-05 ort(H,U,f) = 0.296E-05 0.131E-04 0.140E-04
DMP:  22    -0.176378105647E+02   -0.40130E-04   -0.92987E-05  1680   0.117E-04 0.301E-04
 gam= 0.382 g(H,U,f)=  0.108E-05 0.243E-05 0.278E-05 ort(H,U,f) = 0.802E-06 0.662E-05 0.771E-05
DMP:  23    -0.176378369087E+02   -0.26344E-04   -0.48264E-05  1680   0.629E-05 0.151E-04
 gam= 0.382 g(H,U,f)=  0.410E-06 0.139E-05 0.158E-05 ort(H,U,f) = 0.738E-06 0.361E-05 0.430E-05
DMP:  24    -0.176378551108E+02   -0.18202E-04   -0.26734E-05  1680   0.338E-05 0.866E-05
 gam= 0.382 g(H,U,f)=  0.243E-06 0.802E-06 0.911E-06 ort(H,U,f) = 0.332E-06 0.206E-05 0.244E-05
DMP:  25    -0.176378678633E+02   -0.12753E-04   -0.15203E-05  1680   0.196E-05 0.483E-05
 gam= 0.382 g(H,U,f)=  0.115E-06 0.465E-06 0.530E-06 ort(H,U,f) = 0.236E-06 0.120E-05 0.140E-05
DMP:  26    -0.176378768876E+02   -0.90243E-05   -0.87696E-06  1680   0.111E-05 0.283E-05
 gam= 0.382 g(H,U,f)=  0.705E-07 0.269E-06 0.311E-06 ort(H,U,f) = 0.127E-06 0.699E-06 0.810E-06
DMP:  27    -0.176378833783E+02   -0.64907E-05   -0.51009E-06  1680   0.650E-06 0.164E-05
 gam= 0.382 g(H,U,f)=  0.385E-07 0.153E-06 0.184E-06 ort(H,U,f) = 0.879E-07 0.405E-06 0.474E-06
DMP:  28    -0.176378881286E+02   -0.47503E-05   -0.29819E-06  1680   0.376E-06 0.967E-06
 gam= 0.382 g(H,U,f)=  0.283E-07 0.867E-07 0.110E-06 ort(H,U,f) = 0.566E-07 0.232E-06 0.281E-06
DMP:  29    -0.176378916111E+02   -0.34825E-05   -0.17705E-06  1680   0.225E-06 0.569E-06
 gam= 0.382 g(H,U,f)=  0.205E-07 0.488E-07 0.664E-07 ort(H,U,f) = 0.412E-07 0.132E-06 0.168E-06
DMP:  30    -0.176378941726E+02   -0.25615E-05   -0.10635E-06  1680   0.136E-06 0.341E-06
 gam= 0.382 g(H,U,f)=  0.156E-07 0.274E-07 0.403E-07 ort(H,U,f) = 0.307E-07 0.746E-07 0.101E-06
DMP:  31    -0.176378960757E+02   -0.19031E-05   -0.64795E-07  1680   0.832E-07 0.206E-06
 gam= 0.382 g(H,U,f)=  0.115E-07 0.153E-07 0.247E-07 ort(H,U,f) = 0.237E-07 0.420E-07 0.613E-07
DMP:  32    -0.176378975011E+02   -0.14254E-05   -0.39958E-07  1680   0.514E-07 0.127E-06
 gam= 0.382 g(H,U,f)=  0.919E-08 0.854E-08 0.152E-07 ort(H,U,f) = 0.181E-07 0.235E-07 0.375E-07
DMP:  33    -0.176378985686E+02   -0.10676E-05   -0.25266E-07  1680   0.329E-07 0.792E-07
 gam= 0.382 g(H,U,f)=  0.773E-08 0.478E-08 0.944E-08 ort(H,U,f) = 0.144E-07 0.132E-07 0.231E-07
DMP:  34    -0.176378993707E+02   -0.80212E-06   -0.16527E-07  1680   0.220E-07 0.507E-07
 final diagonalization
   1 F= -.17637899E+02 E0= -.17637523E+02  d E =-.752598E-03
