<?xml version="1.0" encoding="ISO-8859-1"?>
<modeling>
 <generator>
  <i name="program" type="string">vasp </i>
  <i name="version" type="string">5.4.4.18Apr17-6-g9f103f2a35  </i>
  <i name="subversion" type="string">(build Dec 27 2023 19:01:38) complex            parallel </i>
  <i name="platform" type="string">LinuxIFC </i>
  <i name="date" type="string">2024 09 10 </i>
  <i name="time" type="string">14:34:00 </i>
 </generator>
 <incar>
  <i type="string" name="SYSTEM"> Ga2BiAs</i>
  <i type="int" name="ISTART">     0</i>
  <i type="string" name="PREC">accurate</i>
  <i type="string" name="ALGO"> Damped</i>
  <i type="int" name="ICHARG">     2</i>
  <i name="EDIFF">      0.00000100</i>
  <i name="EDIFFG">     -0.01000000</i>
  <i name="ENCUT">    500.00000000</i>
  <i type="string" name="LREAL"> Auto</i>
  <i name="TIME">      0.40000000</i>
  <i type="int" name="ISMEAR">     0</i>
  <i name="SIGMA">      0.05000000</i>
  <i type="logical" name="LWAVE"> F  </i>
  <i type="logical" name="LCHARG"> F  </i>
  <v type="int" name="KPOINT_BSE">    -1     0     0     0</v>
  <i type="logical" name="LHFCALC"> T  </i>
  <i type="string" name="GGA"> PE</i>
  <i name="HFSCREEN">      0.20000000</i>
  <i name="AEXX">      0.25000000</i>
 </incar>
 <structure name="primitive_cell" >
  <crystal>
   <varray name="basis" >
    <v>       4.30014086       0.00000000       0.00000000 </v>
    <v>       0.00000000       4.30014086       0.00000000 </v>
    <v>       0.00000000       0.00000000       6.14586115 </v>
   </varray>
   <i name="volume">    113.64441771 </i>
   <varray name="rec_basis" >
    <v>       0.23255052       0.00000000       0.00000000 </v>
    <v>       0.00000000       0.23255052       0.00000000 </v>
    <v>       0.00000000       0.00000000       0.16271113 </v>
   </varray>
  </crystal>
  <varray name="positions" >
   <v>      -0.50000000       0.00000000      -0.27426398 </v>
   <v>      -0.50000000      -0.50000000      -0.50000000 </v>
   <v>       0.00000000       0.00000000       0.00000000 </v>
   <v>       0.00000000      -0.50000000       0.27426400 </v>
  </varray>
 </structure>
 <varray name="primitive_index" >
  <v type="int" >        1 </v>
  <v type="int" >        4 </v>
  <v type="int" >        3 </v>
  <v type="int" >        2 </v>
 </varray>
 <kpoints>
  <varray name="kpointlist" >
   <v>       0.00000000       0.00000000       0.00000000 </v>
   <v>       0.20000000       0.00000000       0.00000000 </v>
   <v>       0.40000000       0.00000000       0.00000000 </v>
   <v>       0.20000000       0.20000000       0.00000000 </v>
   <v>       0.40000000       0.20000000       0.00000000 </v>
   <v>       0.40000000       0.40000000       0.00000000 </v>
   <v>       0.00000000       0.00000000       0.33333333 </v>
   <v>       0.20000000       0.00000000       0.33333333 </v>
   <v>       0.40000000       0.00000000       0.33333333 </v>
   <v>       0.20000000       0.20000000       0.33333333 </v>
   <v>       0.40000000       0.20000000       0.33333333 </v>
   <v>       0.40000000       0.40000000       0.33333333 </v>
   <v>       0.50000000       0.50000000       0.00000000 </v>
   <v>       0.48571429       0.48571429       0.00000000 </v>
   <v>       0.47142857       0.47142857       0.00000000 </v>
   <v>       0.45714286       0.45714286       0.00000000 </v>
   <v>       0.44285714       0.44285714       0.00000000 </v>
   <v>       0.42857143       0.42857143       0.00000000 </v>
   <v>       0.41428571       0.41428571       0.00000000 </v>
   <v>       0.40000000       0.40000000       0.00000000 </v>
   <v>       0.38571429       0.38571429       0.00000000 </v>
   <v>       0.37142857       0.37142857       0.00000000 </v>
   <v>       0.35714286       0.35714286       0.00000000 </v>
   <v>       0.34285714       0.34285714       0.00000000 </v>
   <v>       0.32857143       0.32857143       0.00000000 </v>
   <v>       0.31428571       0.31428571       0.00000000 </v>
   <v>       0.30000000       0.30000000       0.00000000 </v>
   <v>       0.28571429       0.28571429       0.00000000 </v>
   <v>       0.27142857       0.27142857       0.00000000 </v>
   <v>       0.25714286       0.25714286       0.00000000 </v>
   <v>       0.24285714       0.24285714       0.00000000 </v>
   <v>       0.22857143       0.22857143       0.00000000 </v>
   <v>       0.21428571       0.21428571       0.00000000 </v>
   <v>       0.20000000       0.20000000       0.00000000 </v>
   <v>       0.18571429       0.18571429       0.00000000 </v>
   <v>       0.17142857       0.17142857       0.00000000 </v>
   <v>       0.15714286       0.15714286       0.00000000 </v>
   <v>       0.14285714       0.14285714       0.00000000 </v>
   <v>       0.12857143       0.12857143       0.00000000 </v>
   <v>       0.11428571       0.11428571       0.00000000 </v>
   <v>       0.10000000       0.10000000       0.00000000 </v>
   <v>       0.08571429       0.08571429       0.00000000 </v>
   <v>       0.07142857       0.07142857       0.00000000 </v>
   <v>       0.05714286       0.05714286       0.00000000 </v>
   <v>       0.04285714       0.04285714       0.00000000 </v>
   <v>       0.02857143       0.02857143       0.00000000 </v>
   <v>       0.01428571       0.01428571       0.00000000 </v>
   <v>       0.00000000       0.00000000       0.00000000 </v>
   <v>       0.00000000       0.00000000       0.00000000 </v>
   <v>       0.00000000       0.00000000       0.01428571 </v>
   <v>       0.00000000       0.00000000       0.02857143 </v>
   <v>       0.00000000       0.00000000       0.04285714 </v>
   <v>       0.00000000       0.00000000       0.05714286 </v>
   <v>       0.00000000       0.00000000       0.07142857 </v>
   <v>       0.00000000       0.00000000       0.08571429 </v>
   <v>       0.00000000       0.00000000       0.10000000 </v>
   <v>       0.00000000       0.00000000       0.11428571 </v>
   <v>       0.00000000       0.00000000       0.12857143 </v>
   <v>       0.00000000       0.00000000       0.14285714 </v>
   <v>       0.00000000       0.00000000       0.15714286 </v>
   <v>       0.00000000       0.00000000       0.17142857 </v>
   <v>       0.00000000       0.00000000       0.18571429 </v>
   <v>       0.00000000       0.00000000       0.20000000 </v>
   <v>       0.00000000       0.00000000       0.21428571 </v>
   <v>       0.00000000       0.00000000       0.22857143 </v>
   <v>       0.00000000       0.00000000       0.24285714 </v>
   <v>       0.00000000       0.00000000       0.25714286 </v>
   <v>       0.00000000       0.00000000       0.27142857 </v>
   <v>       0.00000000       0.00000000       0.28571429 </v>
   <v>       0.00000000       0.00000000       0.30000000 </v>
   <v>       0.00000000       0.00000000       0.31428571 </v>
   <v>       0.00000000       0.00000000       0.32857143 </v>
   <v>       0.00000000       0.00000000       0.34285714 </v>
   <v>       0.00000000       0.00000000       0.35714286 </v>
   <v>       0.00000000       0.00000000       0.37142857 </v>
   <v>       0.00000000       0.00000000       0.38571429 </v>
   <v>       0.00000000       0.00000000       0.40000000 </v>
   <v>       0.00000000       0.00000000       0.41428571 </v>
   <v>       0.00000000       0.00000000       0.42857143 </v>
   <v>       0.00000000       0.00000000       0.44285714 </v>
   <v>       0.00000000       0.00000000       0.45714286 </v>
   <v>       0.00000000       0.00000000       0.47142857 </v>
   <v>       0.00000000       0.00000000       0.48571429 </v>
   <v>       0.00000000       0.00000000       0.50000000 </v>
  </varray>
  <varray name="weights" >
   <v>       0.01333333 </v>
   <v>       0.05333333 </v>
   <v>       0.05333333 </v>
   <v>       0.05333333 </v>
   <v>       0.10666667 </v>
   <v>       0.05333333 </v>
   <v>       0.02666667 </v>
   <v>       0.10666667 </v>
   <v>       0.10666667 </v>
   <v>       0.10666667 </v>
   <v>       0.21333333 </v>
   <v>       0.10666667 </v>
   <v>       0.00000000 </v>
   <v>       0.00000000 </v>
   <v>       0.00000000 </v>
   <v>       0.00000000 </v>
   <v>       0.00000000 </v>
   <v>       0.00000000 </v>
   <v>       0.00000000 </v>
   <v>       0.00000000 </v>
   <v>       0.00000000 </v>
   <v>       0.00000000 </v>
   <v>       0.00000000 </v>
   <v>       0.00000000 </v>
   <v>       0.00000000 </v>
   <v>       0.00000000 </v>
   <v>       0.00000000 </v>
   <v>       0.00000000 </v>
   <v>       0.00000000 </v>
   <v>       0.00000000 </v>
   <v>       0.00000000 </v>
   <v>       0.00000000 </v>
   <v>       0.00000000 </v>
   <v>       0.00000000 </v>
   <v>       0.00000000 </v>
   <v>       0.00000000 </v>
   <v>       0.00000000 </v>
   <v>       0.00000000 </v>
   <v>       0.00000000 </v>
   <v>       0.00000000 </v>
   <v>       0.00000000 </v>
   <v>       0.00000000 </v>
   <v>       0.00000000 </v>
   <v>       0.00000000 </v>
   <v>       0.00000000 </v>
   <v>       0.00000000 </v>
   <v>       0.00000000 </v>
   <v>       0.00000000 </v>
   <v>       0.00000000 </v>
   <v>       0.00000000 </v>
   <v>       0.00000000 </v>
   <v>       0.00000000 </v>
   <v>       0.00000000 </v>
   <v>       0.00000000 </v>
   <v>       0.00000000 </v>
   <v>       0.00000000 </v>
   <v>       0.00000000 </v>
   <v>       0.00000000 </v>
   <v>       0.00000000 </v>
   <v>       0.00000000 </v>
   <v>       0.00000000 </v>
   <v>       0.00000000 </v>
   <v>       0.00000000 </v>
   <v>       0.00000000 </v>
   <v>       0.00000000 </v>
   <v>       0.00000000 </v>
   <v>       0.00000000 </v>
   <v>       0.00000000 </v>
   <v>       0.00000000 </v>
   <v>       0.00000000 </v>
   <v>       0.00000000 </v>
   <v>       0.00000000 </v>
   <v>       0.00000000 </v>
   <v>       0.00000000 </v>
   <v>       0.00000000 </v>
   <v>       0.00000000 </v>
   <v>       0.00000000 </v>
   <v>       0.00000000 </v>
   <v>       0.00000000 </v>
   <v>       0.00000000 </v>
   <v>       0.00000000 </v>
   <v>       0.00000000 </v>
   <v>       0.00000000 </v>
   <v>       0.00000000 </v>
  </varray>
 </kpoints>
 <parameters>
  <separator name="general" >
   <i type="string" name="SYSTEM">Ga2BiAs</i>
   <i type="logical" name="LCOMPAT"> F  </i>
  </separator>
  <separator name="electronic" >
   <i type="string" name="PREC">accura</i>
   <i name="ENMAX">    500.00000000</i>
   <i name="ENAUG">    462.75800000</i>
   <i name="EDIFF">      0.00000100</i>
   <i type="int" name="IALGO">    53</i>
   <i type="int" name="IWAVPR">    10</i>
   <i type="int" name="NBANDS">    20</i>
   <i name="NELECT">     26.00000000</i>
   <i type="int" name="TURBO">     0</i>
   <i type="int" name="IRESTART">     0</i>
   <i type="int" name="NREBOOT">     0</i>
   <i type="int" name="NMIN">     0</i>
   <i name="EREF">      0.00000000</i>
   <separator name="electronic smearing" >
    <i type="int" name="ISMEAR">     0</i>
    <i name="SIGMA">      0.05000000</i>
    <i name="KSPACING">      0.50000000</i>
    <i type="logical" name="KGAMMA"> T  </i>
   </separator>
   <separator name="electronic projectors" >
    <i type="logical" name="LREAL"> T  </i>
    <v name="ROPT">     -0.00025000     -0.00025000     -0.00025000</v>
    <i type="int" name="LMAXPAW">  -100</i>
    <i type="int" name="LMAXMIX">     2</i>
    <i type="logical" name="NLSPLINE"> F  </i>
   </separator>
   <separator name="electronic startup" >
    <i type="int" name="ISTART">     0</i>
    <i type="int" name="ICHARG">     2</i>
    <i type="int" name="INIWAV">     1</i>
   </separator>
   <separator name="electronic spin" >
    <i type="int" name="ISPIN">     1</i>
    <i type="logical" name="LNONCOLLINEAR"> F  </i>
    <v name="MAGMOM">      1.00000000      1.00000000      1.00000000      1.00000000</v>
    <i name="NUPDOWN">     -1.00000000</i>
    <i type="logical" name="LSORBIT"> F  </i>
    <v name="SAXIS">      0.00000000      0.00000000      1.00000000</v>
    <i type="logical" name="LSPIRAL"> F  </i>
    <v name="QSPIRAL">      0.00000000      0.00000000      0.00000000</v>
    <i type="logical" name="LZEROZ"> F  </i>
   </separator>
   <separator name="electronic exchange-correlation" >
    <i type="logical" name="LASPH"> F  </i>
    <i type="logical" name="LMETAGGA"> F  </i>
   </separator>
   <separator name="electronic convergence" >
    <i type="int" name="NELM">    60</i>
    <i type="int" name="NELMDL">    -5</i>
    <i type="int" name="NELMIN">     2</i>
    <i name="ENINI">    500.00000000</i>
    <separator name="electronic convergence detail" >
     <i type="logical" name="LDIAG"> T  </i>
     <i type="logical" name="LSUBROT"> F  </i>
     <i name="WEIMIN">      0.00000000</i>
     <i name="EBREAK">      0.00000001</i>
     <i name="DEPER">      0.30000000</i>
     <i type="int" name="NRMM">     4</i>
     <i name="TIME">      0.40000000</i>
    </separator>
   </separator>
   <separator name="electronic mixer" >
    <i name="AMIX">      0.40000000</i>
    <i name="BMIX">      1.00000000</i>
    <i name="AMIN">      0.10000000</i>
    <i name="AMIX_MAG">      1.60000000</i>
    <i name="BMIX_MAG">      1.00000000</i>
    <separator name="electronic mixer details" >
     <i type="int" name="IMIX">     4</i>
     <i type="logical" name="MIXFIRST"> F  </i>
     <i type="int" name="MAXMIX">   -45</i>
     <i name="WC">    100.00000000</i>
     <i type="int" name="INIMIX">     1</i>
     <i type="int" name="MIXPRE">     1</i>
     <i type="int" name="MREMOVE">     5</i>
    </separator>
   </separator>
   <separator name="electronic dipolcorrection" >
    <i type="logical" name="LDIPOL"> F  </i>
    <i type="logical" name="LMONO"> F  </i>
    <i type="int" name="IDIPOL">     0</i>
    <i name="EPSILON">      1.00000000</i>
    <v name="DIPOL">   -100.00000000   -100.00000000   -100.00000000</v>
    <i name="EFIELD">      0.00000000</i>
   </separator>
  </separator>
  <separator name="grids" >
   <i type="int" name="NGX">    32</i>
   <i type="int" name="NGY">    32</i>
   <i type="int" name="NGZ">    48</i>
   <i type="int" name="NGXF">    64</i>
   <i type="int" name="NGYF">    64</i>
   <i type="int" name="NGZF">    96</i>
   <i type="logical" name="ADDGRID"> F  </i>
  </separator>
  <separator name="ionic" >
   <i type="int" name="NSW">     0</i>
   <i type="int" name="IBRION">    -1</i>
   <i type="int" name="MDALGO">     0</i>
   <i type="int" name="ISIF">     0</i>
   <i name="PSTRESS">      0.00000000</i>
   <i name="EDIFFG">     -0.01000000</i>
   <i type="int" name="NFREE">     0</i>
   <i name="POTIM">      0.50000000</i>
   <i name="SMASS">     -3.00000000</i>
   <i name="SCALEE">      1.00000000</i>
  </separator>
  <separator name="ionic md" >
   <i name="TEBEG">      0.00010000</i>
   <i name="TEEND">      0.00010000</i>
   <i type="int" name="NBLOCK">     1</i>
   <i type="int" name="KBLOCK">     1</i>
   <i type="int" name="NPACO">   256</i>
   <i name="APACO">     16.00000000</i>
  </separator>
  <separator name="symmetry" >
   <i type="int" name="ISYM">     3</i>
   <i name="SYMPREC">      0.00001000</i>
  </separator>
  <separator name="dos" >
   <i type="int" name="LORBIT">     0</i>
   <v name="RWIGS">     -1.00000000     -1.00000000     -1.00000000</v>
   <i type="int" name="NEDOS">   301</i>
   <i name="EMIN">     10.00000000</i>
   <i name="EMAX">    -10.00000000</i>
   <i name="EFERMI">      0.00000000</i>
  </separator>
  <separator name="writing" >
   <i type="int" name="NWRITE">     2</i>
   <i type="logical" name="LWAVE"> F  </i>
   <i type="logical" name="LDOWNSAMPLE"> F  </i>
   <i type="logical" name="LCHARG"> F  </i>
   <i type="logical" name="LPARD"> F  </i>
   <i type="logical" name="LVTOT"> F  </i>
   <i type="logical" name="LVHAR"> F  </i>
   <i type="logical" name="LELF"> F  </i>
   <i type="logical" name="LOPTICS"> F  </i>
   <v name="STM">      0.00000000      0.00000000      0.00000000      0.00000000      0.00000000      0.00000000      0.00000000</v>
  </separator>
  <separator name="performance" >
   <i type="int" name="NPAR">     4</i>
   <i type="int" name="NSIM">     4</i>
   <i type="int" name="NBLK">    -1</i>
   <i type="logical" name="LPLANE"> T  </i>
   <i type="logical" name="LSCALAPACK"> T  </i>
   <i type="logical" name="LSCAAWARE"> F  </i>
   <i type="logical" name="LSCALU"> F  </i>
   <i type="logical" name="LASYNC"> F  </i>
   <i type="logical" name="LORBITALREAL"> F  </i>
  </separator>
  <separator name="miscellaneous" >
   <i type="int" name="IDIOT">     3</i>
   <i type="int" name="ISPECIAL">     0</i>
   <i type="logical" name="LMUSIC"> F  </i>
   <v name="POMASS">     69.72300000    208.98000000     74.92200000</v>
   <v name="DARWINR">      0.00000000      0.00000000      0.00000000</v>
   <v name="DARWINV">      1.00000000      1.00000000      1.00000000</v>
   <i type="logical" name="LCORR"> T  </i>
  </separator>
  <i type="logical" name="GGA_COMPAT"> T  </i>
  <i type="logical" name="LBERRY"> F  </i>
  <i type="int" name="ICORELEVEL">     0</i>
  <i type="logical" name="LDAU"> F  </i>
  <i type="int" name="I_CONSTRAINED_M">     0</i>
  <separator name="electronic exchange-correlation" >
   <i type="string" name="GGA">PE</i>
   <i type="int" name="VOSKOWN">     0</i>
   <i type="logical" name="LHFCALC"> T  </i>
   <i type="string" name="PRECFOCK">normal</i>
   <i type="logical" name="LSYMGRAD"> F  </i>
   <i type="logical" name="LHFONE"> F  </i>
   <i type="logical" name="LRHFCALC"> F  </i>
   <i type="logical" name="LTHOMAS"> F  </i>
   <i type="logical" name="LMODELHF"> F  </i>
   <i name="ENCUT4O">     -1.00000000</i>
   <i type="int" name="EXXOEP">     0</i>
   <i type="int" name="FOURORBIT">     0</i>
   <i name="AEXX">      0.25000000</i>
   <i name="HFALPHA">     -1.00000000</i>
   <i name="MCALPHA">      0.00000000</i>
   <i name="ALDAX">      0.75000000</i>
   <i name="AGGAX">      0.75000000</i>
   <i name="ALDAC">      1.00000000</i>
   <i name="AGGAC">      1.00000000</i>
   <i type="int" name="NKREDX">     1</i>
   <i type="int" name="NKREDY">     1</i>
   <i type="int" name="NKREDZ">     1</i>
   <i type="logical" name="SHIFTRED"> F  </i>
   <i type="logical" name="ODDONLY"> F  </i>
   <i type="logical" name="EVENONLY"> F  </i>
   <i type="int" name="LMAXFOCK">     4</i>
   <i type="int" name="NMAXFOCKAE">     1</i>
   <i type="logical" name="LFOCKAEDFT"> F  </i>
   <i name="HFSCREEN">      0.20000000</i>
   <i name="HFSCREENC">      0.20000000</i>
   <i type="int" name="NBANDSGWLOW">     1</i>
  </separator>
  <separator name="vdW DFT" >
   <i type="logical" name="LUSE_VDW"> F  </i>
   <i name="Zab_VDW">     -0.84910000</i>
   <i name="PARAM1">      0.12340000</i>
   <i name="PARAM2">      1.00000000</i>
   <i name="PARAM3">      0.00000000</i>
  </separator>
  <separator name="model GW" >
   <i type="int" name="MODEL_GW">     0</i>
   <i name="MODEL_EPS0">     17.04666266</i>
   <i name="MODEL_ALPHA">      1.00000000</i>
  </separator>
  <separator name="linear response parameters" >
   <i type="logical" name="LEPSILON"> F  </i>
   <i type="logical" name="LRPA"> F  </i>
   <i type="logical" name="LNABLA"> F  </i>
   <i type="logical" name="LVEL"> F  </i>
   <i type="int" name="KINTER">     0</i>
   <i name="CSHIFT">      0.10000000</i>
   <i name="OMEGAMAX">     -1.00000000</i>
   <i name="DEG_THRESHOLD">      0.00200000</i>
   <i name="RTIME">     -0.10000000</i>
   <i name="WPLASMAI">      0.00000000</i>
   <v name="DFIELD">      0.00000000      0.00000000      0.00000000</v>
   <v name="WPLASMA">      0.00000000      0.00000000      0.00000000      0.00000000      0.00000000      0.00000000      0.00000000      0.00000000      0.00000000</v>
  </separator>
  <separator name="orbital magnetization" >
   <i type="logical" name="NUCIND"> F  </i>
   <v name="MAGPOS">      0.00000000      0.00000000      0.00000000</v>
   <i type="logical" name="LNICSALL"> T  </i>
   <i type="logical" name="ORBITALMAG"> F  </i>
   <i type="logical" name="LMAGBLOCH"> F  </i>
   <i type="logical" name="LCHIMAG"> F  </i>
   <i type="logical" name="LGAUGE"> T  </i>
   <i type="int" name="MAGATOM">     0</i>
   <v name="MAGDIPOL">      0.00000000      0.00000000      0.00000000</v>
   <v name="AVECCONST">      0.00000000      0.00000000      0.00000000</v>
  </separator>
  <separator name="response functions" >
   <i type="logical" name="LADDER"> F  </i>
   <i type="logical" name="LRPAFORCE"> F  </i>
   <i type="logical" name="LFXC"> F  </i>
   <i type="logical" name="LHARTREE"> T  </i>
   <i type="int" name="IBSE">     0</i>
   <v type="int" name="KPOINT">    -1     0     0     0</v>
   <i type="logical" name="LTCTE"> F  </i>
   <i type="logical" name="LTETE"> F  </i>
   <i type="logical" name="LTRIPLET"> F  </i>
   <i type="logical" name="LFXCEPS"> F  </i>
   <i type="logical" name="LFXHEG"> F  </i>
   <i type="int" name="NATURALO">     2</i>
   <i type="logical" name="L2ORDER"> F  </i>
   <i type="logical" name="LMP2LT"> F  </i>
   <i type="logical" name="LUSEW"> F  </i>
   <i name="ENCUTGW">     -2.00000000</i>
   <i name="ENCUTGWSOFT">     -2.00000000</i>
   <i name="ENCUTLF">     -1.00000000</i>
   <i type="int" name="LMAXMP2">    -1</i>
   <i name="SCISSOR">      0.00000000</i>
   <i type="int" name="NOMEGA">     0</i>
   <i type="int" name="NOMEGAR">     0</i>
   <i type="int" name="NBANDSGW">    -1</i>
   <i type="int" name="NBANDSO">    -1</i>
   <i type="int" name="NBANDSV">    -1</i>
   <i type="int" name="NELM">     1</i>
   <i type="int" name="NELMHF">     1</i>
   <i type="int" name="DIM">     3</i>
   <i type="int" name="ANTIRES">     0</i>
   <i name="OMEGAMAX">    -30.00000000</i>
   <i name="OMEGAMIN">    -30.00000000</i>
   <i name="OMEGATL">   -200.00000000</i>
   <i type="int" name="OMEGAGRID">   140</i>
   <i name="CSHIFT">     -0.10000000</i>
   <i type="logical" name="SELFENERGY"> F  </i>
   <i type="logical" name="LSPECTRAL"> F  </i>
   <i type="logical" name="LSPECTRALGW"> F  </i>
   <i type="logical" name="LSINGLES"> F  </i>
   <i type="logical" name="LFERMIGW"> F  </i>
   <i type="logical" name="ODDONLYGW"> F  </i>
   <i type="logical" name="EVENONLYGW"> F  </i>
   <i type="int" name="NKREDLFX">     1</i>
   <i type="int" name="NKREDLFY">     1</i>
   <i type="int" name="NKREDLFZ">     1</i>
   <i type="int" name="MAXMEM">  2800</i>
   <i type="int" name="TELESCOPE">     0</i>
   <i type="int" name="TAUPAR">     1</i>
   <i type="int" name="OMEGAPAR">    -1</i>
   <i name="LAMBDA">      1.00000000</i>
  </separator>
  <separator name="External order field" >
   <i name="OFIELD_KAPPA">      0.00000000</i>
   <v name="OFIELD_K">      0.00000000      0.00000000      0.00000000</v>
   <i name="OFIELD_Q6_NEAR">      0.00000000</i>
   <i name="OFIELD_Q6_FAR">      0.00000000</i>
   <i name="OFIELD_A">      0.00000000</i>
  </separator>
 </parameters>
 <atominfo>
  <atoms>       4 </atoms>
  <types>       3 </types>
  <array name="atoms" >
   <dimension dim="1">ion</dimension>
   <field type="string">element</field>
   <field type="int">atomtype</field>
   <set>
    <rc><c>Ga</c><c>   1</c></rc>
    <rc><c>Ga</c><c>   1</c></rc>
    <rc><c>Bi</c><c>   2</c></rc>
    <rc><c>As</c><c>   3</c></rc>
   </set>
  </array>
  <array name="atomtypes" >
   <dimension dim="1">type</dimension>
   <field type="int">atomspertype</field>
   <field type="string">element</field>
   <field>mass</field>
   <field>valence</field>
   <field type="string">pseudopotential</field>
   <set>
    <rc><c>   2</c><c>Ga</c><c>     69.72300000</c><c>      3.00000000</c><c>  PAW_PBE Ga 08Apr2002                  </c></rc>
    <rc><c>   1</c><c>Bi</c><c>    208.98000000</c><c>     15.00000000</c><c>  PAW_PBE Bi_d 06Sep2000                </c></rc>
    <rc><c>   1</c><c>As</c><c>     74.92200000</c><c>      5.00000000</c><c>  PAW_PBE As 22Sep2009                  </c></rc>
   </set>
  </array>
 </atominfo>
 <structure name="initialpos" >
  <crystal>
   <varray name="basis" >
    <v>       4.30014086       0.00000000       0.00000000 </v>
    <v>       0.00000000       4.30014086       0.00000000 </v>
    <v>       0.00000000       0.00000000       6.14586115 </v>
   </varray>
   <i name="volume">    113.64441771 </i>
   <varray name="rec_basis" >
    <v>       0.23255052       0.00000000       0.00000000 </v>
    <v>       0.00000000       0.23255052       0.00000000 </v>
    <v>       0.00000000       0.00000000       0.16271113 </v>
   </varray>
  </crystal>
  <varray name="positions" >
   <v>       0.50000000       0.00000000       0.72573602 </v>
   <v>       0.00000000       0.50000000       0.27426400 </v>
   <v>       0.00000000       0.00000000       0.00000000 </v>
   <v>       0.50000000       0.50000000       0.50000000 </v>
  </varray>
 </structure>
 <calculation>
  <scstep>
   <time name="total">    1.25    1.26</time>
   <energy>
    <i name="alphaZ">     64.20128509 </i>
    <i name="ewald">  -1439.91766544 </i>
    <i name="hartreedc">   -749.41397116 </i>
    <i name="XCdc">     -4.09882595 </i>
    <i name="pawpsdc">   1947.71887434 </i>
    <i name="pawaedc">  -1859.61130231 </i>
    <i name="eentropy">     -0.00589056 </i>
    <i name="bandstr">    106.17557742 </i>
    <i name="atom">   2243.82239720 </i>
    <i name="e_fr_energy">    308.87047863 </i>
    <i name="e_wo_entrp">    308.87636919 </i>
    <i name="e_0_energy">    308.87342391 </i>
   </energy>
  </scstep>
  <scstep>
   <time name="total">    1.39    1.39</time>
   <energy>
    <i name="e_fr_energy">    102.73690144 </i>
    <i name="e_wo_entrp">    102.73810880 </i>
    <i name="e_0_energy">    102.73750512 </i>
   </energy>
  </scstep>
  <scstep>
   <time name="total">    1.26    1.26</time>
   <energy>
    <i name="e_fr_energy">     50.92465519 </i>
    <i name="e_wo_entrp">     50.92687365 </i>
    <i name="e_0_energy">     50.92576442 </i>
   </energy>
  </scstep>
  <scstep>
   <time name="total">    1.45    1.46</time>
   <energy>
    <i name="e_fr_energy">     35.58138408 </i>
    <i name="e_wo_entrp">     35.58469868 </i>
    <i name="e_0_energy">     35.58304138 </i>
   </energy>
  </scstep>
  <scstep>
   <time name="total">    1.55    1.55</time>
   <energy>
    <i name="e_fr_energy">     32.32230073 </i>
    <i name="e_wo_entrp">     32.32293896 </i>
    <i name="e_0_energy">     32.32261985 </i>
   </energy>
  </scstep>
  <scstep>
   <time name="total">  128.75  128.92</time>
   <energy>
    <i name="e_fr_energy">    -15.20175042 </i>
    <i name="e_wo_entrp">    -15.20174293 </i>
    <i name="e_0_energy">    -15.20174668 </i>
   </energy>
  </scstep>
  <scstep>
   <time name="total">  128.88  129.05</time>
   <energy>
    <i name="e_fr_energy">    -16.42230253 </i>
    <i name="e_wo_entrp">    -16.42230250 </i>
    <i name="e_0_energy">    -16.42230251 </i>
   </energy>
  </scstep>
  <scstep>
   <time name="total">  128.87  129.03</time>
   <energy>
    <i name="e_fr_energy">    -17.23142975 </i>
    <i name="e_wo_entrp">    -17.23142975 </i>
    <i name="e_0_energy">    -17.23142975 </i>
   </energy>
  </scstep>
  <scstep>
   <time name="total">  128.73  128.90</time>
   <energy>
    <i name="e_fr_energy">    -17.37343013 </i>
    <i name="e_wo_entrp">    -17.37343013 </i>
    <i name="e_0_energy">    -17.37343013 </i>
   </energy>
  </scstep>
  <scstep>
   <time name="total">  128.70  128.87</time>
   <energy>
    <i name="e_fr_energy">    -17.51636643 </i>
    <i name="e_wo_entrp">    -17.51636643 </i>
    <i name="e_0_energy">    -17.51636643 </i>
   </energy>
  </scstep>
  <scstep>
   <time name="total">  128.25  128.41</time>
   <energy>
    <i name="e_fr_energy">    -17.57739122 </i>
    <i name="e_wo_entrp">    -17.57739117 </i>
    <i name="e_0_energy">    -17.57739119 </i>
   </energy>
  </scstep>
  <scstep>
   <time name="total">  127.26  127.43</time>
   <energy>
    <i name="e_fr_energy">    -17.60806634 </i>
    <i name="e_wo_entrp">    -17.60806306 </i>
    <i name="e_0_energy">    -17.60806470 </i>
   </energy>
  </scstep>
  <scstep>
   <time name="total">  127.96  128.13</time>
   <energy>
    <i name="e_fr_energy">    -17.62438530 </i>
    <i name="e_wo_entrp">    -17.62434115 </i>
    <i name="e_0_energy">    -17.62436322 </i>
   </energy>
  </scstep>
  <scstep>
   <time name="total">  130.67  130.84</time>
   <energy>
    <i name="e_fr_energy">    -17.63086275 </i>
    <i name="e_wo_entrp">    -17.63068067 </i>
    <i name="e_0_energy">    -17.63077171 </i>
   </energy>
  </scstep>
  <scstep>
   <time name="total">  130.63  130.85</time>
   <energy>
    <i name="e_fr_energy">    -17.63454656 </i>
    <i name="e_wo_entrp">    -17.63417340 </i>
    <i name="e_0_energy">    -17.63435998 </i>
   </energy>
  </scstep>
  <scstep>
   <time name="total">  128.60  128.76</time>
   <energy>
    <i name="e_fr_energy">    -17.63613871 </i>
    <i name="e_wo_entrp">    -17.63560840 </i>
    <i name="e_0_energy">    -17.63587356 </i>
   </energy>
  </scstep>
  <scstep>
   <time name="total">  128.46  128.81</time>
   <energy>
    <i name="e_fr_energy">    -17.63699592 </i>
    <i name="e_wo_entrp">    -17.63636631 </i>
    <i name="e_0_energy">    -17.63668112 </i>
   </energy>
  </scstep>
  <scstep>
   <time name="total">  127.90  128.12</time>
   <energy>
    <i name="e_fr_energy">    -17.63739158 </i>
    <i name="e_wo_entrp">    -17.63670600 </i>
    <i name="e_0_energy">    -17.63704879 </i>
   </energy>
  </scstep>
  <scstep>
   <time name="total">  128.29  128.52</time>
   <energy>
    <i name="e_fr_energy">    -17.63759660 </i>
    <i name="e_wo_entrp">    -17.63688070 </i>
    <i name="e_0_energy">    -17.63723865 </i>
   </energy>
  </scstep>
  <scstep>
   <time name="total">  130.55  130.74</time>
   <energy>
    <i name="e_fr_energy">    -17.63770582 </i>
    <i name="e_wo_entrp">    -17.63697357 </i>
    <i name="e_0_energy">    -17.63733970 </i>
   </energy>
  </scstep>
  <scstep>
   <time name="total">  130.70  130.87</time>
   <energy>
    <i name="e_fr_energy">    -17.63777043 </i>
    <i name="e_wo_entrp">    -17.63702927 </i>
    <i name="e_0_energy">    -17.63739985 </i>
   </energy>
  </scstep>
  <scstep>
   <time name="total">  130.61  130.80</time>
   <energy>
    <i name="e_fr_energy">    -17.63781056 </i>
    <i name="e_wo_entrp">    -17.63706448 </i>
    <i name="e_0_energy">    -17.63743752 </i>
   </energy>
  </scstep>
  <scstep>
   <time name="total">  130.51  130.69</time>
   <energy>
    <i name="e_fr_energy">    -17.63783691 </i>
    <i name="e_wo_entrp">    -17.63708806 </i>
    <i name="e_0_energy">    -17.63746249 </i>
   </energy>
  </scstep>
  <scstep>
   <time name="total">  130.50  130.67</time>
   <energy>
    <i name="e_fr_energy">    -17.63785511 </i>
    <i name="e_wo_entrp">    -17.63710469 </i>
    <i name="e_0_energy">    -17.63747990 </i>
   </energy>
  </scstep>
  <scstep>
   <time name="total">  130.79  130.98</time>
   <energy>
    <i name="e_fr_energy">    -17.63786786 </i>
    <i name="e_wo_entrp">    -17.63711654 </i>
    <i name="e_0_energy">    -17.63749220 </i>
   </energy>
  </scstep>
  <scstep>
   <time name="total">  131.03  131.21</time>
   <energy>
    <i name="e_fr_energy">    -17.63787689 </i>
    <i name="e_wo_entrp">    -17.63712504 </i>
    <i name="e_0_energy">    -17.63750097 </i>
   </energy>
  </scstep>
  <scstep>
   <time name="total">  130.58  130.75</time>
   <energy>
    <i name="e_fr_energy">    -17.63788338 </i>
    <i name="e_wo_entrp">    -17.63713123 </i>
    <i name="e_0_energy">    -17.63750730 </i>
   </energy>
  </scstep>
  <scstep>
   <time name="total">  130.65  130.82</time>
   <energy>
    <i name="e_fr_energy">    -17.63788813 </i>
    <i name="e_wo_entrp">    -17.63713579 </i>
    <i name="e_0_energy">    -17.63751196 </i>
   </energy>
  </scstep>
  <scstep>
   <time name="total">  130.58  130.78</time>
   <energy>
    <i name="e_fr_energy">    -17.63789161 </i>
    <i name="e_wo_entrp">    -17.63713917 </i>
    <i name="e_0_energy">    -17.63751539 </i>
   </energy>
  </scstep>
  <scstep>
   <time name="total">  131.09  131.29</time>
   <energy>
    <i name="e_fr_energy">    -17.63789417 </i>
    <i name="e_wo_entrp">    -17.63714166 </i>
    <i name="e_0_energy">    -17.63751792 </i>
   </energy>
  </scstep>
  <scstep>
   <time name="total">  131.61  131.79</time>
   <energy>
    <i name="e_fr_energy">    -17.63789608 </i>
    <i name="e_wo_entrp">    -17.63714353 </i>
    <i name="e_0_energy">    -17.63751980 </i>
   </energy>
  </scstep>
  <scstep>
   <time name="total">  131.98  132.18</time>
   <energy>
    <i name="e_fr_energy">    -17.63789750 </i>
    <i name="e_wo_entrp">    -17.63714493 </i>
    <i name="e_0_energy">    -17.63752121 </i>
   </energy>
  </scstep>
  <scstep>
   <time name="total">  133.93  134.10</time>
   <energy>
    <i name="e_fr_energy">    -17.63789857 </i>
    <i name="e_wo_entrp">    -17.63714598 </i>
    <i name="e_0_energy">    -17.63752227 </i>
   </energy>
  </scstep>
  <scstep>
   <time name="total">  266.97  267.33</time>
   <energy>
    <i name="alphaZ">     64.20128509 </i>
    <i name="ewald">  -1439.91766544 </i>
    <i name="hartreedc">   -755.46349921 </i>
    <i name="XCdc">     -3.30625581 </i>
    <i name="pawpsdc">   2680.77605792 </i>
    <i name="pawaedc">  -2595.41875685 </i>
    <i name="eentropy">     -0.00075260 </i>
    <i name="bandstr">   -261.47767201 </i>
    <i name="atom">   2243.82239720 </i>
    <i name="e_fr_energy">    -17.63789937 </i>
    <i name="e_wo_entrp">    -17.63714677 </i>
    <i name="e_0_energy">    -17.63752307 </i>
   </energy>
  </scstep>
  <structure>
   <crystal>
    <varray name="basis" >
     <v>       4.30014086       0.00000000       0.00000000 </v>
     <v>       0.00000000       4.30014086       0.00000000 </v>
     <v>       0.00000000       0.00000000       6.14586115 </v>
    </varray>
    <i name="volume">    113.64441771 </i>
    <varray name="rec_basis" >
     <v>       0.23255052       0.00000000       0.00000000 </v>
     <v>       0.00000000       0.23255052       0.00000000 </v>
     <v>       0.00000000       0.00000000       0.16271113 </v>
    </varray>
   </crystal>
   <varray name="positions" >
    <v>       0.50000000       0.00000000       0.72573602 </v>
    <v>       0.00000000       0.50000000       0.27426400 </v>
    <v>       0.00000000       0.00000000       0.00000000 </v>
    <v>       0.50000000       0.50000000       0.50000000 </v>
   </varray>
  </structure>
  <varray name="forces" >
   <v>       0.00000000       0.00000000       0.06610576 </v>
   <v>      -0.00000000       0.00000000      -0.06610576 </v>
   <v>      -0.00000000       0.00000000       0.00000000 </v>
   <v>      -0.00000000      -0.00000000       0.00000000 </v>
  </varray>
  <energy>
   <i name="e_fr_energy">    -17.63789937 </i>
   <i name="e_wo_entrp">    -17.63752307 </i>
   <i name="e_0_energy">     -0.00075260 </i>
  </energy>
  <time name="totalsc"> 4075.48 4081.38</time>
  <eigenvalues>
   <array>
    <dimension dim="1">band</dimension>
    <dimension dim="2">kpoint</dimension>
    <dimension dim="3">spin</dimension>
    <field>eigene</field>
    <field>occ</field>
    <set>
     <set comment="spin 1">
      <set comment="kpoint 1">
       <r>  -21.4560    1.0000 </r>
       <r>  -21.4443    1.0000 </r>
       <r>  -21.4443    1.0000 </r>
       <r>  -21.4222    1.0000 </r>
       <r>  -21.4032    1.0000 </r>
       <r>  -10.7240    1.0000 </r>
       <r>   -8.7042    1.0000 </r>
       <r>   -4.5270    1.0000 </r>
       <r>   -0.1454    1.0000 </r>
       <r>   -0.1453    1.0000 </r>
       <r>    2.0055    1.0000 </r>
       <r>    2.5741    1.0000 </r>
       <r>    2.8579    0.5028 </r>
       <r>    2.8580    0.4973 </r>
       <r>    4.3239    0.0000 </r>
       <r>    4.5703    0.0000 </r>
       <r>    6.4935    0.0000 </r>
       <r>    6.4935    0.0000 </r>
       <r>    6.6685    0.0000 </r>
       <r>    9.3512    0.0000 </r>
      </set>
      <set comment="kpoint 2">
       <r>  -21.4528    1.0000 </r>
       <r>  -21.4456    1.0000 </r>
       <r>  -21.4441    1.0000 </r>
       <r>  -21.4204    1.0000 </r>
       <r>  -21.4048    1.0000 </r>
       <r>  -10.4683    1.0000 </r>
       <r>   -8.7068    1.0000 </r>
       <r>   -4.4163    1.0000 </r>
       <r>   -1.1310    1.0000 </r>
       <r>   -0.0864    1.0000 </r>
       <r>    0.0830    1.0000 </r>
       <r>    1.6987    1.0000 </r>
       <r>    2.7136    1.0000 </r>
       <r>    3.9780    0.0000 </r>
       <r>    4.9003    0.0000 </r>
       <r>    6.3011    0.0000 </r>
       <r>    6.5690    0.0000 </r>
       <r>    6.7821    0.0000 </r>
       <r>    7.9501    0.0000 </r>
       <r>   10.6121    0.0000 </r>
      </set>
      <set comment="kpoint 3">
       <r>  -21.4555    1.0000 </r>
       <r>  -21.4437    1.0000 </r>
       <r>  -21.4413    1.0000 </r>
       <r>  -21.4159    1.0000 </r>
       <r>  -21.4075    1.0000 </r>
       <r>   -9.8044    1.0000 </r>
       <r>   -8.9895    1.0000 </r>
       <r>   -3.9941    1.0000 </r>
       <r>   -2.6591    1.0000 </r>
       <r>   -1.0148    1.0000 </r>
       <r>    0.0676    1.0000 </r>
       <r>    0.5901    1.0000 </r>
       <r>    2.3035    1.0000 </r>
       <r>    4.5976    0.0000 </r>
       <r>    5.6444    0.0000 </r>
       <r>    7.3496    0.0000 </r>
       <r>    7.6768    0.0000 </r>
       <r>    7.9806    0.0000 </r>
       <r>    9.0124    0.0000 </r>
       <r>    9.2290    0.0000 </r>
      </set>
      <set comment="kpoint 4">
       <r>  -21.4515    1.0000 </r>
       <r>  -21.4483    1.0000 </r>
       <r>  -21.4396    1.0000 </r>
       <r>  -21.4193    1.0000 </r>
       <r>  -21.4065    1.0000 </r>
       <r>  -10.2180    1.0000 </r>
       <r>   -8.6638    1.0000 </r>
       <r>   -4.3799    1.0000 </r>
       <r>   -1.4440    1.0000 </r>
       <r>   -0.8344    1.0000 </r>
       <r>   -0.2375    1.0000 </r>
       <r>    1.3509    1.0000 </r>
       <r>    1.5246    1.0000 </r>
       <r>    4.9444    0.0000 </r>
       <r>    5.4627    0.0000 </r>
       <r>    6.4641    0.0000 </r>
       <r>    6.8959    0.0000 </r>
       <r>    8.3413    0.0000 </r>
       <r>    8.7830    0.0000 </r>
       <r>    9.2435    0.0000 </r>
      </set>
      <set comment="kpoint 5">
       <r>  -21.4551    1.0000 </r>
       <r>  -21.4488    1.0000 </r>
       <r>  -21.4325    1.0000 </r>
       <r>  -21.4158    1.0000 </r>
       <r>  -21.4093    1.0000 </r>
       <r>   -9.5832    1.0000 </r>
       <r>   -8.8252    1.0000 </r>
       <r>   -4.1470    1.0000 </r>
       <r>   -3.0345    1.0000 </r>
       <r>   -0.8218    1.0000 </r>
       <r>   -0.1193    1.0000 </r>
       <r>    0.1984    1.0000 </r>
       <r>    1.0658    1.0000 </r>
       <r>    5.2151    0.0000 </r>
       <r>    5.6690    0.0000 </r>
       <r>    6.5097    0.0000 </r>
       <r>    6.9298    0.0000 </r>
       <r>    7.7780    0.0000 </r>
       <r>    8.8484    0.0000 </r>
       <r>    9.7962    0.0000 </r>
      </set>
      <set comment="kpoint 6">
       <r>  -21.4547    1.0000 </r>
       <r>  -21.4544    1.0000 </r>
       <r>  -21.4212    1.0000 </r>
       <r>  -21.4152    1.0000 </r>
       <r>  -21.4123    1.0000 </r>
       <r>   -9.0961    1.0000 </r>
       <r>   -8.5717    1.0000 </r>
       <r>   -4.4810    1.0000 </r>
       <r>   -4.0256    1.0000 </r>
       <r>   -0.4702    1.0000 </r>
       <r>   -0.1807    1.0000 </r>
       <r>    0.1741    1.0000 </r>
       <r>    0.3805    1.0000 </r>
       <r>    4.2365    0.0000 </r>
       <r>    4.6097    0.0000 </r>
       <r>    5.1170    0.0000 </r>
       <r>    5.4381    0.0000 </r>
       <r>   10.5565    0.0000 </r>
       <r>   10.5658    0.0000 </r>
       <r>   11.3831    0.0000 </r>
      </set>
      <set comment="kpoint 7">
       <r>  -21.4560    1.0000 </r>
       <r>  -21.4443    1.0000 </r>
       <r>  -21.4443    1.0000 </r>
       <r>  -21.4220    1.0000 </r>
       <r>  -21.4032    1.0000 </r>
       <r>  -10.3813    1.0000 </r>
       <r>   -9.4064    1.0000 </r>
       <r>   -3.2550    1.0000 </r>
       <r>   -0.6911    1.0000 </r>
       <r>    0.1640    1.0000 </r>
       <r>    0.1640    1.0000 </r>
       <r>    2.0046    1.0000 </r>
       <r>    2.0047    1.0000 </r>
       <r>    4.1719    0.0000 </r>
       <r>    4.9867    0.0000 </r>
       <r>    5.3102    0.0000 </r>
       <r>    6.0438    0.0000 </r>
       <r>    7.9576    0.0000 </r>
       <r>    7.9576    0.0000 </r>
       <r>    9.9762    0.0000 </r>
      </set>
      <set comment="kpoint 8">
       <r>  -21.4529    1.0000 </r>
       <r>  -21.4456    1.0000 </r>
       <r>  -21.4441    1.0000 </r>
       <r>  -21.4202    1.0000 </r>
       <r>  -21.4048    1.0000 </r>
       <r>  -10.1553    1.0000 </r>
       <r>   -9.2731    1.0000 </r>
       <r>   -3.5984    1.0000 </r>
       <r>   -1.9028    1.0000 </r>
       <r>   -0.0852    1.0000 </r>
       <r>    0.3365    1.0000 </r>
       <r>    1.7900    1.0000 </r>
       <r>    2.1105    1.0000 </r>
       <r>    4.0480    0.0000 </r>
       <r>    5.0949    0.0000 </r>
       <r>    6.3329    0.0000 </r>
       <r>    7.2012    0.0000 </r>
       <r>    7.7095    0.0000 </r>
       <r>    8.1986    0.0000 </r>
       <r>    8.9912    0.0000 </r>
      </set>
      <set comment="kpoint 9">
       <r>  -21.4556    1.0000 </r>
       <r>  -21.4437    1.0000 </r>
       <r>  -21.4413    1.0000 </r>
       <r>  -21.4157    1.0000 </r>
       <r>  -21.4075    1.0000 </r>
       <r>   -9.6364    1.0000 </r>
       <r>   -9.1239    1.0000 </r>
       <r>   -4.2158    1.0000 </r>
       <r>   -3.4879    1.0000 </r>
       <r>    0.2424    1.0000 </r>
       <r>    0.6689    1.0000 </r>
       <r>    1.3936    1.0000 </r>
       <r>    2.2583    1.0000 </r>
       <r>    3.4643    0.0000 </r>
       <r>    4.5911    0.0000 </r>
       <r>    7.0426    0.0000 </r>
       <r>    7.4346    0.0000 </r>
       <r>    7.6180    0.0000 </r>
       <r>    8.1494    0.0000 </r>
       <r>   10.4801    0.0000 </r>
      </set>
      <set comment="kpoint 10">
       <r>  -21.4515    1.0000 </r>
       <r>  -21.4484    1.0000 </r>
       <r>  -21.4396    1.0000 </r>
       <r>  -21.4192    1.0000 </r>
       <r>  -21.4065    1.0000 </r>
       <r>   -9.9343    1.0000 </r>
       <r>   -9.1288    1.0000 </r>
       <r>   -3.7509    1.0000 </r>
       <r>   -2.3864    1.0000 </r>
       <r>   -0.7414    1.0000 </r>
       <r>    0.2434    1.0000 </r>
       <r>    0.9230    1.0000 </r>
       <r>    1.9547    1.0000 </r>
       <r>    4.8993    0.0000 </r>
       <r>    5.9743    0.0000 </r>
       <r>    6.8926    0.0000 </r>
       <r>    7.0256    0.0000 </r>
       <r>    7.3444    0.0000 </r>
       <r>    8.3145    0.0000 </r>
       <r>    8.6695    0.0000 </r>
      </set>
      <set comment="kpoint 11">
       <r>  -21.4552    1.0000 </r>
       <r>  -21.4488    1.0000 </r>
       <r>  -21.4325    1.0000 </r>
       <r>  -21.4157    1.0000 </r>
       <r>  -21.4093    1.0000 </r>
       <r>   -9.4398    1.0000 </r>
       <r>   -8.9362    1.0000 </r>
       <r>   -4.1872    1.0000 </r>
       <r>   -3.5814    1.0000 </r>
       <r>   -0.7490    1.0000 </r>
       <r>    0.1194    1.0000 </r>
       <r>    0.9480    1.0000 </r>
       <r>    1.0955    1.0000 </r>
       <r>    4.9073    0.0000 </r>
       <r>    5.1124    0.0000 </r>
       <r>    6.9122    0.0000 </r>
       <r>    7.5054    0.0000 </r>
       <r>    8.5029    0.0000 </r>
       <r>    8.9528    0.0000 </r>
       <r>    9.4652    0.0000 </r>
      </set>
      <set comment="kpoint 12">
       <r>  -21.4547    1.0000 </r>
       <r>  -21.4545    1.0000 </r>
       <r>  -21.4212    1.0000 </r>
       <r>  -21.4150    1.0000 </r>
       <r>  -21.4122    1.0000 </r>
       <r>   -9.0438    1.0000 </r>
       <r>   -8.5822    1.0000 </r>
       <r>   -4.3411    1.0000 </r>
       <r>   -4.1118    1.0000 </r>
       <r>   -1.0900    1.0000 </r>
       <r>   -0.5928    1.0000 </r>
       <r>    0.0658    1.0000 </r>
       <r>    0.3452    1.0000 </r>
       <r>    5.0313    0.0000 </r>
       <r>    6.0121    0.0000 </r>
       <r>    6.2970    0.0000 </r>
       <r>    7.6010    0.0000 </r>
       <r>    8.2859    0.0000 </r>
       <r>    9.5576    0.0000 </r>
       <r>   10.1232    0.0000 </r>
      </set>
      <set comment="kpoint 13">
       <r>  -21.4554    1.0000 </r>
       <r>  -21.4554    1.0000 </r>
       <r>  -21.4178    1.0000 </r>
       <r>  -21.4145    1.0000 </r>
       <r>  -21.4133    1.0000 </r>
       <r>   -8.9010    1.0000 </r>
       <r>   -8.4545    1.0000 </r>
       <r>   -4.5355    1.0000 </r>
       <r>   -4.5355    1.0000 </r>
       <r>   -0.3104    1.0000 </r>
       <r>    0.0160    1.0000 </r>
       <r>    0.0160    1.0000 </r>
       <r>    0.3702    1.0000 </r>
       <r>    4.0000    0.0000 </r>
       <r>    4.4171    0.0000 </r>
       <r>    4.4171    0.0000 </r>
       <r>    4.8537    0.0000 </r>
       <r>   11.7014    0.0000 </r>
       <r>   11.8090    0.0000 </r>
       <r>   12.7076    0.0000 </r>
      </set>
      <set comment="kpoint 14">
       <r>  -21.4554    1.0000 </r>
       <r>  -21.4554    1.0000 </r>
       <r>  -21.4179    1.0000 </r>
       <r>  -21.4145    1.0000 </r>
       <r>  -21.4133    1.0000 </r>
       <r>   -8.9043    1.0000 </r>
       <r>   -8.4585    1.0000 </r>
       <r>   -4.5343    1.0000 </r>
       <r>   -4.5241    1.0000 </r>
       <r>   -0.3129    1.0000 </r>
       <r>    0.0109    1.0000 </r>
       <r>    0.0192    1.0000 </r>
       <r>    0.3681    1.0000 </r>
       <r>    4.0088    0.0000 </r>
       <r>    4.4158    0.0000 </r>
       <r>    4.4329    0.0000 </r>
       <r>    4.8680    0.0000 </r>
       <r>   11.6675    0.0000 </r>
       <r>   11.8570    0.0000 </r>
       <r>   12.5916    0.0000 </r>
      </set>
      <set comment="kpoint 15">
       <r>  -21.4553    1.0000 </r>
       <r>  -21.4553    1.0000 </r>
       <r>  -21.4181    1.0000 </r>
       <r>  -21.4146    1.0000 </r>
       <r>  -21.4132    1.0000 </r>
       <r>   -8.9144    1.0000 </r>
       <r>   -8.4700    1.0000 </r>
       <r>   -4.5306    1.0000 </r>
       <r>   -4.4903    1.0000 </r>
       <r>   -0.3205    1.0000 </r>
       <r>   -0.0038    1.0000 </r>
       <r>    0.0289    1.0000 </r>
       <r>    0.3625    1.0000 </r>
       <r>    4.0341    0.0000 </r>
       <r>    4.4142    0.0000 </r>
       <r>    4.4798    0.0000 </r>
       <r>    4.9097    0.0000 </r>
       <r>   11.5746    0.0000 </r>
       <r>   11.8510    0.0000 </r>
       <r>   13.8052    0.0000 </r>
      </set>
      <set comment="kpoint 16">
       <r>  -21.4553    1.0000 </r>
       <r>  -21.4552    1.0000 </r>
       <r>  -21.4185    1.0000 </r>
       <r>  -21.4146    1.0000 </r>
       <r>  -21.4131    1.0000 </r>
       <r>   -8.9320    1.0000 </r>
       <r>   -8.4874    1.0000 </r>
       <r>   -4.5246    1.0000 </r>
       <r>   -4.4349    1.0000 </r>
       <r>   -0.3344    1.0000 </r>
       <r>   -0.0275    1.0000 </r>
       <r>    0.0451    1.0000 </r>
       <r>    0.3559    1.0000 </r>
       <r>    4.0728    0.0000 </r>
       <r>    4.4175    0.0000 </r>
       <r>    4.5566    0.0000 </r>
       <r>    4.9756    0.0000 </r>
       <r>   11.4029    0.0000 </r>
       <r>   11.5382    0.0000 </r>
       <r>   12.7854    0.0000 </r>
      </set>
      <set comment="kpoint 17">
       <r>  -21.4552    1.0000 </r>
       <r>  -21.4551    1.0000 </r>
       <r>  -21.4190    1.0000 </r>
       <r>  -21.4147    1.0000 </r>
       <r>  -21.4129    1.0000 </r>
       <r>   -8.9582    1.0000 </r>
       <r>   -8.5087    1.0000 </r>
       <r>   -4.5164    1.0000 </r>
       <r>   -4.3590    1.0000 </r>
       <r>   -0.3557    1.0000 </r>
       <r>   -0.0587    1.0000 </r>
       <r>    0.0678    1.0000 </r>
       <r>    0.3513    1.0000 </r>
       <r>    4.1189    0.0000 </r>
       <r>    4.4328    0.0000 </r>
       <r>    4.6613    0.0000 </r>
       <r>    5.0629    0.0000 </r>
       <r>   11.2365    0.0000 </r>
       <r>   11.7167    0.0000 </r>
       <r>   12.3208    0.0000 </r>
      </set>
      <set comment="kpoint 18">
       <r>  -21.4550    1.0000 </r>
       <r>  -21.4549    1.0000 </r>
       <r>  -21.4196    1.0000 </r>
       <r>  -21.4149    1.0000 </r>
       <r>  -21.4128    1.0000 </r>
       <r>   -8.9940    1.0000 </r>
       <r>   -8.5311    1.0000 </r>
       <r>   -4.5063    1.0000 </r>
       <r>   -4.2644    1.0000 </r>
       <r>   -0.3855    1.0000 </r>
       <r>   -0.0959    1.0000 </r>
       <r>    0.0969    1.0000 </r>
       <r>    0.3521    1.0000 </r>
       <r>    4.1648    0.0000 </r>
       <r>    4.4678    0.0000 </r>
       <r>    4.7913    0.0000 </r>
       <r>    5.1696    0.0000 </r>
       <r>   11.0135    0.0000 </r>
       <r>   11.0789    0.0000 </r>
       <r>   11.5963    0.0000 </r>
      </set>
      <set comment="kpoint 19">
       <r>  -21.4549    1.0000 </r>
       <r>  -21.4547    1.0000 </r>
       <r>  -21.4203    1.0000 </r>
       <r>  -21.4150    1.0000 </r>
       <r>  -21.4125    1.0000 </r>
       <r>   -9.0400    1.0000 </r>
       <r>   -8.5526    1.0000 </r>
       <r>   -4.4944    1.0000 </r>
       <r>   -4.1527    1.0000 </r>
       <r>   -0.4240    1.0000 </r>
       <r>   -0.1372    1.0000 </r>
       <r>    0.1323    1.0000 </r>
       <r>    0.3613    1.0000 </r>
       <r>    4.2041    0.0000 </r>
       <r>    4.5273    0.0000 </r>
       <r>    4.9442    0.0000 </r>
       <r>    5.2949    0.0000 </r>
       <r>   10.7965    0.0000 </r>
       <r>   10.8251    0.0000 </r>
       <r>   11.5933    0.0000 </r>
      </set>
      <set comment="kpoint 20">
       <r>  -21.4547    1.0000 </r>
       <r>  -21.4544    1.0000 </r>
       <r>  -21.4212    1.0000 </r>
       <r>  -21.4152    1.0000 </r>
       <r>  -21.4123    1.0000 </r>
       <r>   -9.0961    1.0000 </r>
       <r>   -8.5717    1.0000 </r>
       <r>   -4.4810    1.0000 </r>
       <r>   -4.0256    1.0000 </r>
       <r>   -0.4702    1.0000 </r>
       <r>   -0.1807    1.0000 </r>
       <r>    0.1741    1.0000 </r>
       <r>    0.3805    1.0000 </r>
       <r>    4.2365    0.0000 </r>
       <r>    4.6097    0.0000 </r>
       <r>    5.1170    0.0000 </r>
       <r>    5.4381    0.0000 </r>
       <r>   10.5575    0.0000 </r>
       <r>   10.5729    0.0000 </r>
       <r>   12.5132    0.0000 </r>
      </set>
      <set comment="kpoint 21">
       <r>  -21.4545    1.0000 </r>
       <r>  -21.4541    1.0000 </r>
       <r>  -21.4222    1.0000 </r>
       <r>  -21.4154    1.0000 </r>
       <r>  -21.4120    1.0000 </r>
       <r>   -9.1612    1.0000 </r>
       <r>   -8.5876    1.0000 </r>
       <r>   -4.4666    1.0000 </r>
       <r>   -3.8849    1.0000 </r>
       <r>   -0.5225    1.0000 </r>
       <r>   -0.2247    1.0000 </r>
       <r>    0.2222    1.0000 </r>
       <r>    0.4102    1.0000 </r>
       <r>    4.2656    0.0000 </r>
       <r>    4.7088    0.0000 </r>
       <r>    5.3073    0.0000 </r>
       <r>    5.5991    0.0000 </r>
       <r>   10.2777    0.0000 </r>
       <r>   10.3231    0.0000 </r>
       <r>   11.1185    0.0000 </r>
      </set>
      <set comment="kpoint 22">
       <r>  -21.4542    1.0000 </r>
       <r>  -21.4538    1.0000 </r>
       <r>  -21.4233    1.0000 </r>
       <r>  -21.4156    1.0000 </r>
       <r>  -21.4116    1.0000 </r>
       <r>   -9.2341    1.0000 </r>
       <r>   -8.6006    1.0000 </r>
       <r>   -4.4516    1.0000 </r>
       <r>   -3.7322    1.0000 </r>
       <r>   -0.5784    1.0000 </r>
       <r>   -0.2674    1.0000 </r>
       <r>    0.2765    1.0000 </r>
       <r>    0.4504    1.0000 </r>
       <r>    4.2953    0.0000 </r>
       <r>    4.8182    0.0000 </r>
       <r>    5.5123    0.0000 </r>
       <r>    5.7774    0.0000 </r>
       <r>    9.9933    0.0000 </r>
       <r>   10.1744    0.0000 </r>
       <r>   11.0764    0.0000 </r>
      </set>
      <set comment="kpoint 23">
       <r>  -21.4540    1.0000 </r>
       <r>  -21.4534    1.0000 </r>
       <r>  -21.4244    1.0000 </r>
       <r>  -21.4159    1.0000 </r>
       <r>  -21.4113    1.0000 </r>
       <r>   -9.3128    1.0000 </r>
       <r>   -8.6109    1.0000 </r>
       <r>   -4.4364    1.0000 </r>
       <r>   -3.5690    1.0000 </r>
       <r>   -0.6354    1.0000 </r>
       <r>   -0.3074    1.0000 </r>
       <r>    0.3369    1.0000 </r>
       <r>    0.5005    1.0000 </r>
       <r>    4.3283    0.0000 </r>
       <r>    4.9327    0.0000 </r>
       <r>    5.7294    0.0000 </r>
       <r>    5.9725    0.0000 </r>
       <r>    9.7060    0.0000 </r>
       <r>    9.8178    0.0000 </r>
       <r>   10.9228    0.0000 </r>
      </set>
      <set comment="kpoint 24">
       <r>  -21.4537    1.0000 </r>
       <r>  -21.4530    1.0000 </r>
       <r>  -21.4257    1.0000 </r>
       <r>  -21.4161    1.0000 </r>
       <r>  -21.4109    1.0000 </r>
       <r>   -9.3958    1.0000 </r>
       <r>   -8.6192    1.0000 </r>
       <r>   -4.4215    1.0000 </r>
       <r>   -3.3967    1.0000 </r>
       <r>   -0.6909    1.0000 </r>
       <r>   -0.3434    1.0000 </r>
       <r>    0.4032    1.0000 </r>
       <r>    0.5597    1.0000 </r>
       <r>    4.3659    0.0000 </r>
       <r>    5.0485    0.0000 </r>
       <r>    5.9556    0.0000 </r>
       <r>    6.1833    0.0000 </r>
       <r>    9.4187    0.0000 </r>
       <r>    9.5604    0.0000 </r>
       <r>   10.6488    0.0000 </r>
      </set>
      <set comment="kpoint 25">
       <r>  -21.4535    1.0000 </r>
       <r>  -21.4526    1.0000 </r>
       <r>  -21.4270    1.0000 </r>
       <r>  -21.4164    1.0000 </r>
       <r>  -21.4105    1.0000 </r>
       <r>   -9.4815    1.0000 </r>
       <r>   -8.6259    1.0000 </r>
       <r>   -4.4073    1.0000 </r>
       <r>   -3.2165    1.0000 </r>
       <r>   -0.7429    1.0000 </r>
       <r>   -0.3739    1.0000 </r>
       <r>    0.4755    1.0000 </r>
       <r>    0.6273    1.0000 </r>
       <r>    4.4089    0.0000 </r>
       <r>    5.1621    0.0000 </r>
       <r>    6.1874    0.0000 </r>
       <r>    6.4087    0.0000 </r>
       <r>    9.1337    0.0000 </r>
       <r>    9.3043    0.0000 </r>
       <r>   10.5191    0.0000 </r>
      </set>
      <set comment="kpoint 26">
       <r>  -21.4532    1.0000 </r>
       <r>  -21.4522    1.0000 </r>
       <r>  -21.4284    1.0000 </r>
       <r>  -21.4167    1.0000 </r>
       <r>  -21.4101    1.0000 </r>
       <r>   -9.5687    1.0000 </r>
       <r>   -8.6314    1.0000 </r>
       <r>   -4.3945    1.0000 </r>
       <r>   -3.0296    1.0000 </r>
       <r>   -0.7893    1.0000 </r>
       <r>   -0.3980    1.0000 </r>
       <r>    0.5535    1.0000 </r>
       <r>    0.7028    1.0000 </r>
       <r>    4.4576    0.0000 </r>
       <r>    5.2700    0.0000 </r>
       <r>    6.4198    0.0000 </r>
       <r>    6.6471    0.0000 </r>
       <r>    8.8534    0.0000 </r>
       <r>    9.0546    0.0000 </r>
       <r>   10.1172    0.0000 </r>
      </set>
      <set comment="kpoint 27">
       <r>  -21.4529    1.0000 </r>
       <r>  -21.4517    1.0000 </r>
       <r>  -21.4298    1.0000 </r>
       <r>  -21.4170    1.0000 </r>
       <r>  -21.4097    1.0000 </r>
       <r>   -9.6563    1.0000 </r>
       <r>   -8.6362    1.0000 </r>
       <r>   -4.3834    1.0000 </r>
       <r>   -2.8372    1.0000 </r>
       <r>   -0.8287    1.0000 </r>
       <r>   -0.4147    1.0000 </r>
       <r>    0.6369    1.0000 </r>
       <r>    0.7855    1.0000 </r>
       <r>    4.5119    0.0000 </r>
       <r>    5.3683    0.0000 </r>
       <r>    6.6448    0.0000 </r>
       <r>    6.8966    0.0000 </r>
       <r>    8.5805    0.0000 </r>
       <r>    8.8197    0.0000 </r>
       <r>   10.1529    0.0000 </r>
      </set>
      <set comment="kpoint 28">
       <r>  -21.4526    1.0000 </r>
       <r>  -21.4512    1.0000 </r>
       <r>  -21.4313    1.0000 </r>
       <r>  -21.4173    1.0000 </r>
       <r>  -21.4092    1.0000 </r>
       <r>   -9.7433    1.0000 </r>
       <r>   -8.6405    1.0000 </r>
       <r>   -4.3746    1.0000 </r>
       <r>   -2.6404    1.0000 </r>
       <r>   -0.8596    1.0000 </r>
       <r>   -0.4229    1.0000 </r>
       <r>    0.7257    1.0000 </r>
       <r>    0.8749    1.0000 </r>
       <r>    4.5717    0.0000 </r>
       <r>    5.4525    0.0000 </r>
       <r>    6.8476    0.0000 </r>
       <r>    7.1540    0.0000 </r>
       <r>    8.3185    0.0000 </r>
       <r>    8.6122    0.0000 </r>
       <r>    9.7503    0.0000 </r>
      </set>
      <set comment="kpoint 29">
       <r>  -21.4524    1.0000 </r>
       <r>  -21.4508    1.0000 </r>
       <r>  -21.4328    1.0000 </r>
       <r>  -21.4177    1.0000 </r>
       <r>  -21.4088    1.0000 </r>
       <r>   -9.8289    1.0000 </r>
       <r>   -8.6444    1.0000 </r>
       <r>   -4.3683    1.0000 </r>
       <r>   -2.4403    1.0000 </r>
       <r>   -0.8812    1.0000 </r>
       <r>   -0.4219    1.0000 </r>
       <r>    0.8194    1.0000 </r>
       <r>    0.9705    1.0000 </r>
       <r>    4.6365    0.0000 </r>
       <r>    5.5175    0.0000 </r>
       <r>    7.0011    0.0000 </r>
       <r>    7.4109    0.0000 </r>
       <r>    8.0764    0.0000 </r>
       <r>    8.4700    0.0000 </r>
       <r>    9.7318    0.0000 </r>
      </set>
      <set comment="kpoint 30">
       <r>  -21.4521    1.0000 </r>
       <r>  -21.4503    1.0000 </r>
       <r>  -21.4342    1.0000 </r>
       <r>  -21.4180    1.0000 </r>
       <r>  -21.4083    1.0000 </r>
       <r>   -9.9126    1.0000 </r>
       <r>   -8.6483    1.0000 </r>
       <r>   -4.3648    1.0000 </r>
       <r>   -2.2381    1.0000 </r>
       <r>   -0.8927    1.0000 </r>
       <r>   -0.4106    1.0000 </r>
       <r>    0.9179    1.0000 </r>
       <r>    1.0718    1.0000 </r>
       <r>    4.7053    0.0000 </r>
       <r>    5.5581    0.0000 </r>
       <r>    7.0647    0.0000 </r>
       <r>    7.6069    0.0000 </r>
       <r>    7.9138    0.0000 </r>
       <r>    8.4012    0.0000 </r>
       <r>    9.3954    0.0000 </r>
      </set>
      <set comment="kpoint 31">
       <r>  -21.4519    1.0000 </r>
       <r>  -21.4498    1.0000 </r>
       <r>  -21.4357    1.0000 </r>
       <r>  -21.4183    1.0000 </r>
       <r>  -21.4078    1.0000 </r>
       <r>   -9.9938    1.0000 </r>
       <r>   -8.6521    1.0000 </r>
       <r>   -4.3643    1.0000 </r>
       <r>   -2.0355    1.0000 </r>
       <r>   -0.8938    1.0000 </r>
       <r>   -0.3879    1.0000 </r>
       <r>    1.0207    1.0000 </r>
       <r>    1.1784    1.0000 </r>
       <r>    4.7763    0.0000 </r>
       <r>    5.5700    0.0000 </r>
       <r>    7.0141    0.0000 </r>
       <r>    7.5137    0.0000 </r>
       <r>    8.0579    0.0000 </r>
       <r>    8.4507    0.0000 </r>
       <r>    9.2441    0.0000 </r>
      </set>
      <set comment="kpoint 32">
       <r>  -21.4517    1.0000 </r>
       <r>  -21.4493    1.0000 </r>
       <r>  -21.4371    1.0000 </r>
       <r>  -21.4187    1.0000 </r>
       <r>  -21.4074    1.0000 </r>
       <r>  -10.0720    1.0000 </r>
       <r>   -8.6559    1.0000 </r>
       <r>   -4.3667    1.0000 </r>
       <r>   -1.8340    1.0000 </r>
       <r>   -0.8843    1.0000 </r>
       <r>   -0.3527    1.0000 </r>
       <r>    1.1275    1.0000 </r>
       <r>    1.2898    1.0000 </r>
       <r>    4.8462    0.0000 </r>
       <r>    5.5522    0.0000 </r>
       <r>    6.8727    0.0000 </r>
       <r>    7.3113    0.0000 </r>
       <r>    8.3252    0.0000 </r>
       <r>    8.5514    0.0000 </r>
       <r>    9.0398    0.0000 </r>
      </set>
      <set comment="kpoint 33">
       <r>  -21.4515    1.0000 </r>
       <r>  -21.4488    1.0000 </r>
       <r>  -21.4384    1.0000 </r>
       <r>  -21.4190    1.0000 </r>
       <r>  -21.4070    1.0000 </r>
       <r>  -10.1468    1.0000 </r>
       <r>   -8.6598    1.0000 </r>
       <r>   -4.3720    1.0000 </r>
       <r>   -1.6359    1.0000 </r>
       <r>   -0.8643    1.0000 </r>
       <r>   -0.3033    1.0000 </r>
       <r>    1.2377    1.0000 </r>
       <r>    1.4054    1.0000 </r>
       <r>    4.9076    0.0000 </r>
       <r>    5.5104    0.0000 </r>
       <r>    6.6803    0.0000 </r>
       <r>    7.1027    0.0000 </r>
       <r>    8.5410    0.0000 </r>
       <r>    8.6629    0.0000 </r>
       <r>    9.0700    0.0000 </r>
      </set>
      <set comment="kpoint 34">
       <r>  -21.4515    1.0000 </r>
       <r>  -21.4483    1.0000 </r>
       <r>  -21.4396    1.0000 </r>
       <r>  -21.4193    1.0000 </r>
       <r>  -21.4065    1.0000 </r>
       <r>  -10.2180    1.0000 </r>
       <r>   -8.6638    1.0000 </r>
       <r>   -4.3799    1.0000 </r>
       <r>   -1.4440    1.0000 </r>
       <r>   -0.8344    1.0000 </r>
       <r>   -0.2375    1.0000 </r>
       <r>    1.3509    1.0000 </r>
       <r>    1.5246    1.0000 </r>
       <r>    4.9444    0.0000 </r>
       <r>    5.4627    0.0000 </r>
       <r>    6.4641    0.0000 </r>
       <r>    6.8950    0.0000 </r>
       <r>    8.3460    0.0000 </r>
       <r>    8.8744    0.0000 </r>
       <r>    8.9300    0.0000 </r>
      </set>
      <set comment="kpoint 35">
       <r>  -21.4515    1.0000 </r>
       <r>  -21.4478    1.0000 </r>
       <r>  -21.4407    1.0000 </r>
       <r>  -21.4197    1.0000 </r>
       <r>  -21.4061    1.0000 </r>
       <r>  -10.2852    1.0000 </r>
       <r>   -8.6679    1.0000 </r>
       <r>   -4.3901    1.0000 </r>
       <r>   -1.2613    1.0000 </r>
       <r>   -0.7953    1.0000 </r>
       <r>   -0.1532    1.0000 </r>
       <r>    1.4662    1.0000 </r>
       <r>    1.6467    1.0000 </r>
       <r>    4.9285    0.0000 </r>
       <r>    5.4419    0.0000 </r>
       <r>    6.2386    0.0000 </r>
       <r>    6.6874    0.0000 </r>
       <r>    8.1522    0.0000 </r>
       <r>    8.5252    0.0000 </r>
       <r>    9.4685    0.0000 </r>
      </set>
      <set comment="kpoint 36">
       <r>  -21.4516    1.0000 </r>
       <r>  -21.4474    1.0000 </r>
       <r>  -21.4417    1.0000 </r>
       <r>  -21.4200    1.0000 </r>
       <r>  -21.4057    1.0000 </r>
       <r>  -10.3482    1.0000 </r>
       <r>   -8.6720    1.0000 </r>
       <r>   -4.4022    1.0000 </r>
       <r>   -1.0913    1.0000 </r>
       <r>   -0.7478    1.0000 </r>
       <r>   -0.0479    1.0000 </r>
       <r>    1.5831    1.0000 </r>
       <r>    1.7710    1.0000 </r>
       <r>    4.8436    0.0000 </r>
       <r>    5.4694    0.0000 </r>
       <r>    6.0117    0.0000 </r>
       <r>    6.4791    0.0000 </r>
       <r>    7.9608    0.0000 </r>
       <r>    8.3049    0.0000 </r>
       <r>    9.5769    0.0000 </r>
      </set>
      <set comment="kpoint 37">
       <r>  -21.4518    1.0000 </r>
       <r>  -21.4469    1.0000 </r>
       <r>  -21.4425    1.0000 </r>
       <r>  -21.4203    1.0000 </r>
       <r>  -21.4054    1.0000 </r>
       <r>  -10.4068    1.0000 </r>
       <r>   -8.6761    1.0000 </r>
       <r>   -4.4156    1.0000 </r>
       <r>   -0.9367    1.0000 </r>
       <r>   -0.6931    1.0000 </r>
       <r>    0.0800    1.0000 </r>
       <r>    1.7005    1.0000 </r>
       <r>    1.8964    1.0000 </r>
       <r>    4.7067    0.0000 </r>
       <r>    5.5325    0.0000 </r>
       <r>    5.7882    0.0000 </r>
       <r>    6.2719    0.0000 </r>
       <r>    7.7698    0.0000 </r>
       <r>    8.0920    0.0000 </r>
       <r>    9.8850    0.0000 </r>
      </set>
      <set comment="kpoint 38">
       <r>  -21.4522    1.0000 </r>
       <r>  -21.4465    1.0000 </r>
       <r>  -21.4431    1.0000 </r>
       <r>  -21.4206    1.0000 </r>
       <r>  -21.4050    1.0000 </r>
       <r>  -10.4608    1.0000 </r>
       <r>   -8.6801    1.0000 </r>
       <r>   -4.4300    1.0000 </r>
       <r>   -0.7988    1.0000 </r>
       <r>   -0.6327    1.0000 </r>
       <r>    0.2304    1.0000 </r>
       <r>    1.8173    1.0000 </r>
       <r>    2.0219    1.0000 </r>
       <r>    4.5404    0.0000 </r>
       <r>    5.5715    0.0000 </r>
       <r>    5.6055    0.0000 </r>
       <r>    6.0749    0.0000 </r>
       <r>    7.5851    0.0000 </r>
       <r>    7.8860    0.0000 </r>
       <r>   10.1378    0.0000 </r>
      </set>
      <set comment="kpoint 39">
       <r>  -21.4526    1.0000 </r>
       <r>  -21.4461    1.0000 </r>
       <r>  -21.4436    1.0000 </r>
       <r>  -21.4209    1.0000 </r>
       <r>  -21.4047    1.0000 </r>
       <r>  -10.5101    1.0000 </r>
       <r>   -8.6841    1.0000 </r>
       <r>   -4.4447    1.0000 </r>
       <r>   -0.6773    1.0000 </r>
       <r>   -0.5682    1.0000 </r>
       <r>    0.4011    1.0000 </r>
       <r>    1.9325    1.0000 </r>
       <r>    2.1462    1.0000 </r>
       <r>    4.3587    0.0000 </r>
       <r>    5.3644    0.0000 </r>
       <r>    5.6387    0.0000 </r>
       <r>    5.9298    0.0000 </r>
       <r>    7.4076    0.0000 </r>
       <r>    7.6886    0.0000 </r>
       <r>   10.1940    0.0000 </r>
      </set>
      <set comment="kpoint 40">
       <r>  -21.4531    1.0000 </r>
       <r>  -21.4458    1.0000 </r>
       <r>  -21.4439    1.0000 </r>
       <r>  -21.4211    1.0000 </r>
       <r>  -21.4044    1.0000 </r>
       <r>  -10.5545    1.0000 </r>
       <r>   -8.6878    1.0000 </r>
       <r>   -4.4593    1.0000 </r>
       <r>   -0.5703    1.0000 </r>
       <r>   -0.5013    1.0000 </r>
       <r>    0.5884    1.0000 </r>
       <r>    2.0443    1.0000 </r>
       <r>    2.2677    1.0000 </r>
       <r>    4.1690    0.0000 </r>
       <r>    5.1692    0.0000 </r>
       <r>    5.5363    0.0000 </r>
       <r>    5.9297    0.0000 </r>
       <r>    7.2394    0.0000 </r>
       <r>    7.5017    0.0000 </r>
       <r>   10.2949    0.0000 </r>
      </set>
      <set comment="kpoint 41">
       <r>  -21.4537    1.0000 </r>
       <r>  -21.4454    1.0000 </r>
       <r>  -21.4441    1.0000 </r>
       <r>  -21.4214    1.0000 </r>
       <r>  -21.4041    1.0000 </r>
       <r>  -10.5938    1.0000 </r>
       <r>   -8.6913    1.0000 </r>
       <r>   -4.4734    1.0000 </r>
       <r>   -0.4760    1.0000 </r>
       <r>   -0.4342    1.0000 </r>
       <r>    0.7880    1.0000 </r>
       <r>    2.1512    1.0000 </r>
       <r>    2.3845    1.0000 </r>
       <r>    3.9758    0.0000 </r>
       <r>    4.9884    0.0000 </r>
       <r>    5.3610    0.0000 </r>
       <r>    6.0120    0.0000 </r>
       <r>    7.0824    0.0000 </r>
       <r>    7.3272    0.0000 </r>
       <r>   10.1469    0.0000 </r>
      </set>
      <set comment="kpoint 42">
       <r>  -21.4542    1.0000 </r>
       <r>  -21.4451    1.0000 </r>
       <r>  -21.4442    1.0000 </r>
       <r>  -21.4216    1.0000 </r>
       <r>  -21.4039    1.0000 </r>
       <r>  -10.6282    1.0000 </r>
       <r>   -8.6945    1.0000 </r>
       <r>   -4.4865    1.0000 </r>
       <r>   -0.3931    1.0000 </r>
       <r>   -0.3689    1.0000 </r>
       <r>    0.9956    1.0000 </r>
       <r>    2.2510    1.0000 </r>
       <r>    2.4944    1.0000 </r>
       <r>    3.7817    0.0000 </r>
       <r>    4.8243    0.0000 </r>
       <r>    5.1800    0.0000 </r>
       <r>    6.1105    0.0000 </r>
       <r>    6.9388    0.0000 </r>
       <r>    7.1673    0.0000 </r>
       <r>    9.9714    0.0000 </r>
      </set>
      <set comment="kpoint 43">
       <r>  -21.4547    1.0000 </r>
       <r>  -21.4449    1.0000 </r>
       <r>  -21.4443    1.0000 </r>
       <r>  -21.4218    1.0000 </r>
       <r>  -21.4037    1.0000 </r>
       <r>  -10.6573    1.0000 </r>
       <r>   -8.6974    1.0000 </r>
       <r>   -4.4982    1.0000 </r>
       <r>   -0.3210    1.0000 </r>
       <r>   -0.3078    1.0000 </r>
       <r>    1.2069    1.0000 </r>
       <r>    2.3417    1.0000 </r>
       <r>    2.5951    1.0000 </r>
       <r>    3.5885    0.0000 </r>
       <r>    4.6793    0.0000 </r>
       <r>    5.0107    0.0000 </r>
       <r>    6.2091    0.0000 </r>
       <r>    6.8110    0.0000 </r>
       <r>    7.0248    0.0000 </r>
       <r>    9.9715    0.0000 </r>
      </set>
      <set comment="kpoint 44">
       <r>  -21.4552    1.0000 </r>
       <r>  -21.4447    1.0000 </r>
       <r>  -21.4443    1.0000 </r>
       <r>  -21.4219    1.0000 </r>
       <r>  -21.4035    1.0000 </r>
       <r>  -10.6813    1.0000 </r>
       <r>   -8.6998    1.0000 </r>
       <r>   -4.5082    1.0000 </r>
       <r>   -0.2601    1.0000 </r>
       <r>   -0.2535    1.0000 </r>
       <r>    1.4173    1.0000 </r>
       <r>    2.4207    1.0000 </r>
       <r>    2.6836    1.0000 </r>
       <r>    3.3980    0.0000 </r>
       <r>    4.5559    0.0000 </r>
       <r>    4.8614    0.0000 </r>
       <r>    6.3006    0.0000 </r>
       <r>    6.7014    0.0000 </r>
       <r>    6.9022    0.0000 </r>
       <r>    9.6506    0.0000 </r>
      </set>
      <set comment="kpoint 45">
       <r>  -21.4555    1.0000 </r>
       <r>  -21.4445    1.0000 </r>
       <r>  -21.4443    1.0000 </r>
       <r>  -21.4220    1.0000 </r>
       <r>  -21.4034    1.0000 </r>
       <r>  -10.7000    1.0000 </r>
       <r>   -8.7017    1.0000 </r>
       <r>   -4.5162    1.0000 </r>
       <r>   -0.2111    1.0000 </r>
       <r>   -0.2081    1.0000 </r>
       <r>    1.6204    1.0000 </r>
       <r>    2.4856    1.0000 </r>
       <r>    2.7569    0.9979 </r>
       <r>    3.2138    0.0000 </r>
       <r>    4.4566    0.0000 </r>
       <r>    4.7382    0.0000 </r>
       <r>    6.3796    0.0000 </r>
       <r>    6.6127    0.0000 </r>
       <r>    6.8027    0.0000 </r>
       <r>    9.5251    0.0000 </r>
      </set>
      <set comment="kpoint 46">
       <r>  -21.4558    1.0000 </r>
       <r>  -21.4444    1.0000 </r>
       <r>  -21.4443    1.0000 </r>
       <r>  -21.4221    1.0000 </r>
       <r>  -21.4033    1.0000 </r>
       <r>  -10.7133    1.0000 </r>
       <r>   -8.7031    1.0000 </r>
       <r>   -4.5222    1.0000 </r>
       <r>   -0.1750    1.0000 </r>
       <r>   -0.1739    1.0000 </r>
       <r>    1.8050    1.0000 </r>
       <r>    2.5340    1.0000 </r>
       <r>    2.8120    0.9027 </r>
       <r>    3.0448    0.0000 </r>
       <r>    4.3836    0.0000 </r>
       <r>    4.6463    0.0000 </r>
       <r>    6.4410    0.0000 </r>
       <r>    6.5472    0.0000 </r>
       <r>    6.7291    0.0000 </r>
       <r>    9.4304    0.0000 </r>
      </set>
      <set comment="kpoint 47">
       <r>  -21.4560    1.0000 </r>
       <r>  -21.4443    1.0000 </r>
       <r>  -21.4443    1.0000 </r>
       <r>  -21.4222    1.0000 </r>
       <r>  -21.4032    1.0000 </r>
       <r>  -10.7214    1.0000 </r>
       <r>   -8.7039    1.0000 </r>
       <r>   -4.5258    1.0000 </r>
       <r>   -0.1529    1.0000 </r>
       <r>   -0.1527    1.0000 </r>
       <r>    1.9466    1.0000 </r>
       <r>    2.5638    1.0000 </r>
       <r>    2.8399    0.6900 </r>
       <r>    2.9290    0.0222 </r>
       <r>    4.3390    0.0000 </r>
       <r>    4.5896    0.0000 </r>
       <r>    6.4801    0.0000 </r>
       <r>    6.5072    0.0000 </r>
       <r>    6.6839    0.0000 </r>
       <r>    9.3713    0.0000 </r>
      </set>
      <set comment="kpoint 48">
       <r>  -21.4560    1.0000 </r>
       <r>  -21.4443    1.0000 </r>
       <r>  -21.4443    1.0000 </r>
       <r>  -21.4222    1.0000 </r>
       <r>  -21.4032    1.0000 </r>
       <r>  -10.7240    1.0000 </r>
       <r>   -8.7042    1.0000 </r>
       <r>   -4.5270    1.0000 </r>
       <r>   -0.1454    1.0000 </r>
       <r>   -0.1453    1.0000 </r>
       <r>    2.0055    1.0000 </r>
       <r>    2.5741    1.0000 </r>
       <r>    2.8578    0.5061 </r>
       <r>    2.8582    0.4925 </r>
       <r>    4.3239    0.0000 </r>
       <r>    4.5703    0.0000 </r>
       <r>    6.4935    0.0000 </r>
       <r>    6.4935    0.0000 </r>
       <r>    6.6685    0.0000 </r>
       <r>    9.3514    0.0000 </r>
      </set>
      <set comment="kpoint 49">
       <r>  -21.4560    1.0000 </r>
       <r>  -21.4443    1.0000 </r>
       <r>  -21.4443    1.0000 </r>
       <r>  -21.4222    1.0000 </r>
       <r>  -21.4032    1.0000 </r>
       <r>  -10.7240    1.0000 </r>
       <r>   -8.7042    1.0000 </r>
       <r>   -4.5270    1.0000 </r>
       <r>   -0.1454    1.0000 </r>
       <r>   -0.1453    1.0000 </r>
       <r>    2.0055    1.0000 </r>
       <r>    2.5741    1.0000 </r>
       <r>    2.8578    0.5059 </r>
       <r>    2.8581    0.4953 </r>
       <r>    4.3239    0.0000 </r>
       <r>    4.5703    0.0000 </r>
       <r>    6.4935    0.0000 </r>
       <r>    6.4935    0.0000 </r>
       <r>    6.6685    0.0000 </r>
       <r>    9.3512    0.0000 </r>
      </set>
      <set comment="kpoint 50">
       <r>  -21.4560    1.0000 </r>
       <r>  -21.4443    1.0000 </r>
       <r>  -21.4443    1.0000 </r>
       <r>  -21.4222    1.0000 </r>
       <r>  -21.4032    1.0000 </r>
       <r>  -10.7234    1.0000 </r>
       <r>   -8.7060    1.0000 </r>
       <r>   -4.5241    1.0000 </r>
       <r>   -0.1447    1.0000 </r>
       <r>   -0.1447    1.0000 </r>
       <r>    1.9777    1.0000 </r>
       <r>    2.6012    1.0000 </r>
       <r>    2.8535    0.5577 </r>
       <r>    2.8543    0.5355 </r>
       <r>    4.3238    0.0000 </r>
       <r>    4.5723    0.0000 </r>
       <r>    6.4971    0.0000 </r>
       <r>    6.4971    0.0000 </r>
       <r>    6.6656    0.0000 </r>
       <r>    9.3560    0.0000 </r>
      </set>
      <set comment="kpoint 51">
       <r>  -21.4560    1.0000 </r>
       <r>  -21.4443    1.0000 </r>
       <r>  -21.4443    1.0000 </r>
       <r>  -21.4222    1.0000 </r>
       <r>  -21.4032    1.0000 </r>
       <r>  -10.7214    1.0000 </r>
       <r>   -8.7114    1.0000 </r>
       <r>   -4.5156    1.0000 </r>
       <r>   -0.1427    1.0000 </r>
       <r>   -0.1427    1.0000 </r>
       <r>    1.9062    1.0000 </r>
       <r>    2.6709    1.0000 </r>
       <r>    2.8420    0.6773 </r>
       <r>    2.8424    0.6657 </r>
       <r>    4.3237    0.0000 </r>
       <r>    4.5784    0.0000 </r>
       <r>    6.5079    0.0000 </r>
       <r>    6.5079    0.0000 </r>
       <r>    6.6568    0.0000 </r>
       <r>    9.3704    0.0000 </r>
      </set>
      <set comment="kpoint 52">
       <r>  -21.4560    1.0000 </r>
       <r>  -21.4443    1.0000 </r>
       <r>  -21.4443    1.0000 </r>
       <r>  -21.4222    1.0000 </r>
       <r>  -21.4032    1.0000 </r>
       <r>  -10.7182    1.0000 </r>
       <r>   -8.7202    1.0000 </r>
       <r>   -4.5016    1.0000 </r>
       <r>   -0.1394    1.0000 </r>
       <r>   -0.1394    1.0000 </r>
       <r>    1.8099    1.0000 </r>
       <r>    2.7641    0.9960 </r>
       <r>    2.8244    0.8302 </r>
       <r>    2.8245    0.8268 </r>
       <r>    4.3239    0.0000 </r>
       <r>    4.5883    0.0000 </r>
       <r>    6.5258    0.0000 </r>
       <r>    6.5258    0.0000 </r>
       <r>    6.6425    0.0000 </r>
       <r>    9.3940    0.0000 </r>
      </set>
      <set comment="kpoint 53">
       <r>  -21.4560    1.0000 </r>
       <r>  -21.4443    1.0000 </r>
       <r>  -21.4443    1.0000 </r>
       <r>  -21.4222    1.0000 </r>
       <r>  -21.4032    1.0000 </r>
       <r>  -10.7136    1.0000 </r>
       <r>   -8.7325    1.0000 </r>
       <r>   -4.4819    1.0000 </r>
       <r>   -0.1348    1.0000 </r>
       <r>   -0.1348    1.0000 </r>
       <r>    1.7008    1.0000 </r>
       <r>    2.8182    0.8707 </r>
       <r>    2.8183    0.8679 </r>
       <r>    2.8687    0.3810 </r>
       <r>    4.3247    0.0000 </r>
       <r>    4.6015    0.0000 </r>
       <r>    6.5503    0.0000 </r>
       <r>    6.5503    0.0000 </r>
       <r>    6.6229    0.0000 </r>
       <r>    9.4267    0.0000 </r>
      </set>
      <set comment="kpoint 54">
       <r>  -21.4560    1.0000 </r>
       <r>  -21.4443    1.0000 </r>
       <r>  -21.4443    1.0000 </r>
       <r>  -21.4222    1.0000 </r>
       <r>  -21.4032    1.0000 </r>
       <r>  -10.7077    1.0000 </r>
       <r>   -8.7482    1.0000 </r>
       <r>   -4.4569    1.0000 </r>
       <r>   -0.1289    1.0000 </r>
       <r>   -0.1289    1.0000 </r>
       <r>    1.5847    1.0000 </r>
       <r>    2.7965    0.9594 </r>
       <r>    2.7966    0.9582 </r>
       <r>    2.9784    0.0003 </r>
       <r>    4.3267    0.0000 </r>
       <r>    4.6179    0.0000 </r>
       <r>    6.5816    0.0000 </r>
       <r>    6.5816    0.0000 </r>
       <r>    6.5986    0.0000 </r>
       <r>    9.4679    0.0000 </r>
      </set>
      <set comment="kpoint 55">
       <r>  -21.4560    1.0000 </r>
       <r>  -21.4443    1.0000 </r>
       <r>  -21.4443    1.0000 </r>
       <r>  -21.4222    1.0000 </r>
       <r>  -21.4032    1.0000 </r>
       <r>  -10.7006    1.0000 </r>
       <r>   -8.7670    1.0000 </r>
       <r>   -4.4266    1.0000 </r>
       <r>   -0.1217    1.0000 </r>
       <r>   -0.1217    1.0000 </r>
       <r>    1.4647    1.0000 </r>
       <r>    2.7706    0.9934 </r>
       <r>    2.7707    0.9931 </r>
       <r>    3.0901    0.0000 </r>
       <r>    4.3305    0.0000 </r>
       <r>    4.6369    0.0000 </r>
       <r>    6.5701    0.0000 </r>
       <r>    6.6193    0.0000 </r>
       <r>    6.6193    0.0000 </r>
       <r>    9.5175    0.0000 </r>
      </set>
      <set comment="kpoint 56">
       <r>  -21.4560    1.0000 </r>
       <r>  -21.4443    1.0000 </r>
       <r>  -21.4443    1.0000 </r>
       <r>  -21.4222    1.0000 </r>
       <r>  -21.4032    1.0000 </r>
       <r>  -10.6921    1.0000 </r>
       <r>   -8.7888    1.0000 </r>
       <r>   -4.3911    1.0000 </r>
       <r>   -0.1133    1.0000 </r>
       <r>   -0.1132    1.0000 </r>
       <r>    1.3423    1.0000 </r>
       <r>    2.7407    0.9996 </r>
       <r>    2.7409    0.9995 </r>
       <r>    3.2016    0.0000 </r>
       <r>    4.3368    0.0000 </r>
       <r>    4.6584    0.0000 </r>
       <r>    6.5380    0.0000 </r>
       <r>    6.6631    0.0000 </r>
       <r>    6.6631    0.0000 </r>
       <r>    9.5736    0.0000 </r>
      </set>
      <set comment="kpoint 57">
       <r>  -21.4560    1.0000 </r>
       <r>  -21.4443    1.0000 </r>
       <r>  -21.4443    1.0000 </r>
       <r>  -21.4222    1.0000 </r>
       <r>  -21.4032    1.0000 </r>
       <r>  -10.6824    1.0000 </r>
       <r>   -8.8135    1.0000 </r>
       <r>   -4.3508    1.0000 </r>
       <r>   -0.1036    1.0000 </r>
       <r>   -0.1036    1.0000 </r>
       <r>    1.2184    1.0000 </r>
       <r>    2.7073    1.0000 </r>
       <r>    2.7075    1.0000 </r>
       <r>    3.3116    0.0000 </r>
       <r>    4.3462    0.0000 </r>
       <r>    4.6818    0.0000 </r>
       <r>    6.5029    0.0000 </r>
       <r>    6.7127    0.0000 </r>
       <r>    6.7127    0.0000 </r>
       <r>    9.6370    0.0000 </r>
      </set>
      <set comment="kpoint 58">
       <r>  -21.4560    1.0000 </r>
       <r>  -21.4443    1.0000 </r>
       <r>  -21.4443    1.0000 </r>
       <r>  -21.4221    1.0000 </r>
       <r>  -21.4032    1.0000 </r>
       <r>  -10.6714    1.0000 </r>
       <r>   -8.8409    1.0000 </r>
       <r>   -4.3056    1.0000 </r>
       <r>   -0.0927    1.0000 </r>
       <r>   -0.0926    1.0000 </r>
       <r>    1.0935    1.0000 </r>
       <r>    2.6707    1.0000 </r>
       <r>    2.6709    1.0000 </r>
       <r>    3.4185    0.0000 </r>
       <r>    4.3596    0.0000 </r>
       <r>    4.7070    0.0000 </r>
       <r>    6.4656    0.0000 </r>
       <r>    6.7676    0.0000 </r>
       <r>    6.7676    0.0000 </r>
       <r>    9.7067    0.0000 </r>
      </set>
      <set comment="kpoint 59">
       <r>  -21.4560    1.0000 </r>
       <r>  -21.4443    1.0000 </r>
       <r>  -21.4443    1.0000 </r>
       <r>  -21.4221    1.0000 </r>
       <r>  -21.4032    1.0000 </r>
       <r>  -10.6591    1.0000 </r>
       <r>   -8.8707    1.0000 </r>
       <r>   -4.2560    1.0000 </r>
       <r>   -0.0806    1.0000 </r>
       <r>   -0.0806    1.0000 </r>
       <r>    0.9681    1.0000 </r>
[...]
       <r>  -21.4561    1.0000 </r>
       <r>  -21.4444    1.0000 </r>
       <r>  -21.4443    1.0000 </r>
       <r>  -21.4219    1.0000 </r>
       <r>  -21.4032    1.0000 </r>
       <r>  -10.1554    1.0000 </r>
       <r>   -9.7192    1.0000 </r>
       <r>   -2.4878    1.0000 </r>
       <r>   -1.5994    1.0000 </r>
       <r>    0.2973    1.0000 </r>
       <r>    0.2973    1.0000 </r>
       <r>    1.7489    1.0000 </r>
       <r>    1.7490    1.0000 </r>
       <r>    4.2917    0.0000 </r>
       <r>    4.9587    0.0000 </r>
       <r>    5.7294    0.0000 </r>
       <r>    6.1202    0.0000 </r>
       <r>    8.7391    0.0000 </r>
       <r>    8.9665    0.0000 </r>
       <r>    9.6793    0.0000 </r>
      </set>
      <set comment="kpoint 81">
       <r>  -21.4561    1.0000 </r>
       <r>  -21.4444    1.0000 </r>
       <r>  -21.4443    1.0000 </r>
       <r>  -21.4219    1.0000 </r>
       <r>  -21.4032    1.0000 </r>
       <r>  -10.1295    1.0000 </r>
       <r>   -9.7504    1.0000 </r>
       <r>   -2.3811    1.0000 </r>
       <r>   -1.7141    1.0000 </r>
       <r>    0.3071    1.0000 </r>
       <r>    0.3072    1.0000 </r>
       <r>    1.7317    1.0000 </r>
       <r>    1.7317    1.0000 </r>
       <r>    4.3008    0.0000 </r>
       <r>    4.9515    0.0000 </r>
       <r>    5.7556    0.0000 </r>
       <r>    6.1316    0.0000 </r>
       <r>    8.8364    0.0000 </r>
       <r>    8.8942    0.0000 </r>
       <r>    9.6211    0.0000 </r>
      </set>
      <set comment="kpoint 82">
       <r>  -21.4561    1.0000 </r>
       <r>  -21.4444    1.0000 </r>
       <r>  -21.4443    1.0000 </r>
       <r>  -21.4219    1.0000 </r>
       <r>  -21.4032    1.0000 </r>
       <r>  -10.1079    1.0000 </r>
       <r>   -9.7759    1.0000 </r>
       <r>   -2.2731    1.0000 </r>
       <r>   -1.8277    1.0000 </r>
       <r>    0.3143    1.0000 </r>
       <r>    0.3144    1.0000 </r>
       <r>    1.7191    1.0000 </r>
       <r>    1.7192    1.0000 </r>
       <r>    4.3075    0.0000 </r>
       <r>    4.9459    0.0000 </r>
       <r>    5.7744    0.0000 </r>
       <r>    6.1404    0.0000 </r>
       <r>    8.9262    0.0000 </r>
       <r>    9.0090    0.0000 </r>
       <r>    9.5497    0.0000 </r>
      </set>
      <set comment="kpoint 83">
       <r>  -21.4561    1.0000 </r>
       <r>  -21.4444    1.0000 </r>
       <r>  -21.4443    1.0000 </r>
       <r>  -21.4219    1.0000 </r>
       <r>  -21.4032    1.0000 </r>
       <r>  -10.0931    1.0000 </r>
       <r>   -9.7929    1.0000 </r>
       <r>   -2.1643    1.0000 </r>
       <r>   -1.9400    1.0000 </r>
       <r>    0.3187    1.0000 </r>
       <r>    0.3188    1.0000 </r>
       <r>    1.7116    1.0000 </r>
       <r>    1.7116    1.0000 </r>
       <r>    4.3117    0.0000 </r>
       <r>    4.9424    0.0000 </r>
       <r>    5.7857    0.0000 </r>
       <r>    6.1459    0.0000 </r>
       <r>    8.9956    0.0000 </r>
       <r>    9.1474    0.0000 </r>
       <r>    9.4670    0.0000 </r>
      </set>
      <set comment="kpoint 84">
       <r>  -21.4561    1.0000 </r>
       <r>  -21.4444    1.0000 </r>
       <r>  -21.4443    1.0000 </r>
       <r>  -21.4219    1.0000 </r>
       <r>  -21.4032    1.0000 </r>
       <r>  -10.0878    1.0000 </r>
       <r>   -9.7990    1.0000 </r>
       <r>   -2.0677    1.0000 </r>
       <r>   -2.0377    1.0000 </r>
       <r>    0.3202    1.0000 </r>
       <r>    0.3202    1.0000 </r>
       <r>    1.7090    1.0000 </r>
       <r>    1.7091    1.0000 </r>
       <r>    4.3131    0.0000 </r>
       <r>    4.9411    0.0000 </r>
       <r>    5.7895    0.0000 </r>
       <r>    6.1477    0.0000 </r>
       <r>    9.0482    0.0000 </r>
       <r>    9.0882    0.0000 </r>
       <r>    9.4555    0.0000 </r>
      </set>
     </set>
    </set>
   </array>
  </eigenvalues>
  <separator name="orbital magnetization" >
   <v name="MAGDIPOLOUT">      0.00000000      0.00000000      0.00000000</v>
  </separator>
  <dos>
   <i name="efermi">      2.85796089 </i>
   <total>
    <array>
     <dimension dim="1">gridpoints</dimension>
     <dimension dim="2">spin</dimension>
     <field>energy</field>
     <field>total</field>
     <field>integrated</field>
     <set>
      <set comment="spin 1">
       <r>   -23.2191     0.0000     0.0000 </r>
       <r>   -23.0898     0.0000     0.0000 </r>
       <r>   -22.9605     0.0000     0.0000 </r>
       <r>   -22.8313     0.0000     0.0000 </r>
       <r>   -22.7020     0.0000     0.0000 </r>
       <r>   -22.5727     0.0000     0.0000 </r>
       <r>   -22.4434     0.0000     0.0000 </r>
       <r>   -22.3141     0.0000     0.0000 </r>
       <r>   -22.1848     0.0000     0.0000 </r>
       <r>   -22.0555     0.0000     0.0000 </r>
       <r>   -21.9262     0.0000     0.0000 </r>
       <r>   -21.7969     0.0000     0.0000 </r>
       <r>   -21.6676     0.0000     0.0000 </r>
       <r>   -21.5383     0.2613     0.0338 </r>
       <r>   -21.4090    55.6061     7.2232 </r>
       <r>   -21.2798    21.4741     9.9996 </r>
       <r>   -21.1505     0.0032    10.0000 </r>
       <r>   -21.0212     0.0000    10.0000 </r>
       <r>   -20.8919     0.0000    10.0000 </r>
       <r>   -20.7626     0.0000    10.0000 </r>
       <r>   -20.6333     0.0000    10.0000 </r>
       <r>   -20.5040     0.0000    10.0000 </r>
       <r>   -20.3747     0.0000    10.0000 </r>
       <r>   -20.2454     0.0000    10.0000 </r>
       <r>   -20.1161     0.0000    10.0000 </r>
       <r>   -19.9868     0.0000    10.0000 </r>
       <r>   -19.8576     0.0000    10.0000 </r>
       <r>   -19.7283     0.0000    10.0000 </r>
       <r>   -19.5990     0.0000    10.0000 </r>
       <r>   -19.4697     0.0000    10.0000 </r>
       <r>   -19.3404     0.0000    10.0000 </r>
       <r>   -19.2111     0.0000    10.0000 </r>
       <r>   -19.0818     0.0000    10.0000 </r>
       <r>   -18.9525     0.0000    10.0000 </r>
       <r>   -18.8232     0.0000    10.0000 </r>
       <r>   -18.6939     0.0000    10.0000 </r>
       <r>   -18.5646     0.0000    10.0000 </r>
       <r>   -18.4354     0.0000    10.0000 </r>
       <r>   -18.3061     0.0000    10.0000 </r>
       <r>   -18.1768     0.0000    10.0000 </r>
       <r>   -18.0475     0.0000    10.0000 </r>
       <r>   -17.9182     0.0000    10.0000 </r>
       <r>   -17.7889     0.0000    10.0000 </r>
       <r>   -17.6596     0.0000    10.0000 </r>
       <r>   -17.5303     0.0000    10.0000 </r>
       <r>   -17.4010     0.0000    10.0000 </r>
       <r>   -17.2717     0.0000    10.0000 </r>
       <r>   -17.1424     0.0000    10.0000 </r>
       <r>   -17.0131     0.0000    10.0000 </r>
       <r>   -16.8839     0.0000    10.0000 </r>
       <r>   -16.7546     0.0000    10.0000 </r>
       <r>   -16.6253     0.0000    10.0000 </r>
       <r>   -16.4960     0.0000    10.0000 </r>
       <r>   -16.3667     0.0000    10.0000 </r>
       <r>   -16.2374     0.0000    10.0000 </r>
       <r>   -16.1081     0.0000    10.0000 </r>
       <r>   -15.9788     0.0000    10.0000 </r>
       <r>   -15.8495     0.0000    10.0000 </r>
       <r>   -15.7202     0.0000    10.0000 </r>
       <r>   -15.5909     0.0000    10.0000 </r>
       <r>   -15.4617     0.0000    10.0000 </r>
       <r>   -15.3324     0.0000    10.0000 </r>
       <r>   -15.2031     0.0000    10.0000 </r>
       <r>   -15.0738     0.0000    10.0000 </r>
       <r>   -14.9445     0.0000    10.0000 </r>
       <r>   -14.8152     0.0000    10.0000 </r>
       <r>   -14.6859     0.0000    10.0000 </r>
       <r>   -14.5566     0.0000    10.0000 </r>
       <r>   -14.4273     0.0000    10.0000 </r>
       <r>   -14.2980     0.0000    10.0000 </r>
       <r>   -14.1687     0.0000    10.0000 </r>
       <r>   -14.0395     0.0000    10.0000 </r>
       <r>   -13.9102     0.0000    10.0000 </r>
       <r>   -13.7809     0.0000    10.0000 </r>
       <r>   -13.6516     0.0000    10.0000 </r>
       <r>   -13.5223     0.0000    10.0000 </r>
       <r>   -13.3930     0.0000    10.0000 </r>
       <r>   -13.2637     0.0000    10.0000 </r>
       <r>   -13.1344     0.0000    10.0000 </r>
       <r>   -13.0051     0.0000    10.0000 </r>
       <r>   -12.8758     0.0000    10.0000 </r>
       <r>   -12.7465     0.0000    10.0000 </r>
       <r>   -12.6172     0.0000    10.0000 </r>
       <r>   -12.4880     0.0000    10.0000 </r>
       <r>   -12.3587     0.0000    10.0000 </r>
       <r>   -12.2294     0.0000    10.0000 </r>
       <r>   -12.1001     0.0000    10.0000 </r>
       <r>   -11.9708     0.0000    10.0000 </r>
       <r>   -11.8415     0.0000    10.0000 </r>
       <r>   -11.7122     0.0000    10.0000 </r>
       <r>   -11.5829     0.0000    10.0000 </r>
       <r>   -11.4536     0.0000    10.0000 </r>
       <r>   -11.3243     0.0000    10.0000 </r>
       <r>   -11.1950     0.0000    10.0000 </r>
       <r>   -11.0658     0.0000    10.0000 </r>
       <r>   -10.9365     0.0000    10.0000 </r>
       <r>   -10.8072     0.0019    10.0002 </r>
       <r>   -10.6779     0.1845    10.0241 </r>
       <r>   -10.5486     0.0293    10.0279 </r>
       <r>   -10.4193     0.8053    10.1320 </r>
       <r>   -10.2900     0.4380    10.1886 </r>
       <r>   -10.1607     1.4905    10.3814 </r>
       <r>   -10.0314     0.9738    10.5073 </r>
       <r>    -9.9021     1.3485    10.6816 </r>
       <r>    -9.7728     0.9683    10.8068 </r>
       <r>    -9.6436     0.9187    10.9256 </r>
       <r>    -9.5143     2.5508    11.2554 </r>
       <r>    -9.3850     3.3860    11.6932 </r>
       <r>    -9.2557     1.4481    11.8804 </r>
       <r>    -9.1264     2.3383    12.1827 </r>
       <r>    -8.9971     4.2753    12.7355 </r>
       <r>    -8.8678     3.8998    13.2397 </r>
       <r>    -8.7385     1.7384    13.4644 </r>
       <r>    -8.6092     2.0988    13.7358 </r>
       <r>    -8.4799     2.0363    13.9991 </r>
       <r>    -8.3506     0.0071    14.0000 </r>
       <r>    -8.2213     0.0000    14.0000 </r>
       <r>    -8.0921     0.0000    14.0000 </r>
       <r>    -7.9628     0.0000    14.0000 </r>
       <r>    -7.8335     0.0000    14.0000 </r>
       <r>    -7.7042     0.0000    14.0000 </r>
       <r>    -7.5749     0.0000    14.0000 </r>
       <r>    -7.4456     0.0000    14.0000 </r>
       <r>    -7.3163     0.0000    14.0000 </r>
       <r>    -7.1870     0.0000    14.0000 </r>
       <r>    -7.0577     0.0000    14.0000 </r>
       <r>    -6.9284     0.0000    14.0000 </r>
       <r>    -6.7991     0.0000    14.0000 </r>
       <r>    -6.6699     0.0000    14.0000 </r>
       <r>    -6.5406     0.0000    14.0000 </r>
       <r>    -6.4113     0.0000    14.0000 </r>
       <r>    -6.2820     0.0000    14.0000 </r>
       <r>    -6.1527     0.0000    14.0000 </r>
       <r>    -6.0234     0.0000    14.0000 </r>
       <r>    -5.8941     0.0000    14.0000 </r>
       <r>    -5.7648     0.0000    14.0000 </r>
       <r>    -5.6355     0.0000    14.0000 </r>
       <r>    -5.5062     0.0000    14.0000 </r>
       <r>    -5.3769     0.0000    14.0000 </r>
       <r>    -5.2476     0.0000    14.0000 </r>
       <r>    -5.1184     0.0000    14.0000 </r>
       <r>    -4.9891     0.0000    14.0000 </r>
       <r>    -4.8598     0.0000    14.0000 </r>
       <r>    -4.7305     0.0000    14.0000 </r>
       <r>    -4.6012     0.0040    14.0005 </r>
       <r>    -4.4719     0.7383    14.0960 </r>
       <r>    -4.3426     2.6010    14.4323 </r>
       <r>    -4.2133     2.6714    14.7776 </r>
       <r>    -4.0840     6.1871    15.5776 </r>
       <r>    -3.9547     1.9014    15.8234 </r>
       <r>    -3.8254     0.1571    15.8437 </r>
       <r>    -3.6962     1.5275    16.0412 </r>
       <r>    -3.5669     3.6352    16.5112 </r>
       <r>    -3.4376     2.9310    16.8902 </r>
       <r>    -3.3083     0.1546    16.9102 </r>
       <r>    -3.1790     0.3789    16.9592 </r>
       <r>    -3.0497     0.5564    17.0311 </r>
       <r>    -2.9204     1.0990    17.1732 </r>
       <r>    -2.7911     0.0011    17.1733 </r>
       <r>    -2.6618     0.3871    17.2234 </r>
       <r>    -2.5325     0.4377    17.2800 </r>
       <r>    -2.4032     0.5233    17.3476 </r>
       <r>    -2.2740     1.1256    17.4932 </r>
       <r>    -2.1447     0.0012    17.4933 </r>
       <r>    -2.0154     0.0012    17.4935 </r>
       <r>    -1.8861     1.1241    17.6388 </r>
       <r>    -1.7568     0.5247    17.7067 </r>
       <r>    -1.6275     0.0000    17.7067 </r>
       <r>    -1.4982     0.0515    17.7133 </r>
       <r>    -1.3689     0.7595    17.8115 </r>
       <r>    -1.2396     0.0148    17.8134 </r>
       <r>    -1.1103     1.0625    17.9508 </r>
       <r>    -0.9810     2.0948    18.2216 </r>
       <r>    -0.8517     0.7344    18.3166 </r>
       <r>    -0.7225     5.6709    19.0498 </r>
       <r>    -0.5932     2.3923    19.3591 </r>
       <r>    -0.4639     1.3028    19.5276 </r>
       <r>    -0.3346     0.3565    19.5736 </r>
       <r>    -0.2053     0.9055    19.6907 </r>
       <r>    -0.0760     4.1129    20.2225 </r>
       <r>     0.0533     2.3145    20.5217 </r>
       <r>     0.1826     7.0810    21.4372 </r>
       <r>     0.3119     5.5943    22.1605 </r>
       <r>     0.4412     3.4587    22.6077 </r>
       <r>     0.5705     0.2863    22.6447 </r>
       <r>     0.6997     1.9152    22.8923 </r>
       <r>     0.8290     0.3247    22.9343 </r>
       <r>     0.9583     3.4108    23.3753 </r>
       <r>     1.0876     4.0985    23.9052 </r>
       <r>     1.2169     2.3822    24.2132 </r>
       <r>     1.3462     0.5189    24.2803 </r>
       <r>     1.4755     2.0079    24.5399 </r>
       <r>     1.6048     0.7679    24.6392 </r>
       <r>     1.7341     0.7945    24.7419 </r>
       <r>     1.8634     1.6637    24.9570 </r>
       <r>     1.9927     1.8171    25.1919 </r>
       <r>     2.1219     1.9209    25.4403 </r>
       <r>     2.2512     1.3685    25.6172 </r>
       <r>     2.3805     1.7105    25.8384 </r>
       <r>     2.5098     0.0197    25.8409 </r>
       <r>     2.6391     0.2068    25.8677 </r>
       <r>     2.7684     0.7697    25.9672 </r>
       <r>     2.8977     0.4063    26.0197 </r>
       <r>     3.0270     0.0538    26.0267 </r>
       <r>     3.1563     0.0000    26.0267 </r>
       <r>     3.2856     0.0000    26.0267 </r>
       <r>     3.4149     0.1339    26.0440 </r>
       <r>     3.5442     1.4964    26.2375 </r>
       <r>     3.6734     0.0197    26.2400 </r>
       <r>     3.8027     0.0000    26.2400 </r>
       <r>     3.9320     0.0807    26.2504 </r>
       <r>     4.0613     1.8048    26.4838 </r>
       <r>     4.1906     0.9592    26.6078 </r>
       <r>     4.3199     0.9542    26.7312 </r>
       <r>     4.4492     0.1199    26.7467 </r>
       <r>     4.5785     1.1163    26.8910 </r>
       <r>     4.7078     2.3861    27.1995 </r>
       <r>     4.8371     0.1773    27.2224 </r>
       <r>     4.9664     6.1478    28.0173 </r>
       <r>     5.0956     4.3985    28.5860 </r>
       <r>     5.2249     4.7244    29.1968 </r>
       <r>     5.3542     1.0204    29.3287 </r>
       <r>     5.4835     1.3743    29.5064 </r>
       <r>     5.6128     0.5572    29.5784 </r>
       <r>     5.7421     2.1951    29.8622 </r>
       <r>     5.8714     0.0372    29.8671 </r>
       <r>     6.0007     1.9332    30.1170 </r>
       <r>     6.1300     1.7726    30.3462 </r>
       <r>     6.2593     0.3675    30.3937 </r>
       <r>     6.3886     3.6670    30.8678 </r>
       <r>     6.5178     2.2143    31.1541 </r>
       <r>     6.6471     1.6376    31.3658 </r>
       <r>     6.7764     0.5224    31.4334 </r>
       <r>     6.9057     3.8494    31.9311 </r>
       <r>     7.0350     5.7188    32.6705 </r>
       <r>     7.1643     1.8652    32.9116 </r>
       <r>     7.2936     1.5693    33.1145 </r>
       <r>     7.4229     2.9166    33.4916 </r>
       <r>     7.5522     4.2280    34.0382 </r>
       <r>     7.6815     4.1521    34.5751 </r>
       <r>     7.8108     3.0936    34.9750 </r>
       <r>     7.9401     0.9761    35.1013 </r>
       <r>     8.0693     1.8088    35.3351 </r>
       <r>     8.1986     2.3394    35.6376 </r>
       <r>     8.3279     3.7632    36.1241 </r>
       <r>     8.4572     1.6325    36.3352 </r>
       <r>     8.5865     2.9621    36.7182 </r>
       <r>     8.7158     1.5307    36.9161 </r>
       <r>     8.8451     1.6927    37.1349 </r>
       <r>     8.9744     3.9631    37.6473 </r>
       <r>     9.1037     2.7228    37.9993 </r>
       <r>     9.2330     0.7702    38.0989 </r>
       <r>     9.3623     1.0189    38.2307 </r>
       <r>     9.4915     2.6716    38.5761 </r>
       <r>     9.6208     2.2901    38.8722 </r>
       <r>     9.7501     0.2196    38.9006 </r>
       <r>     9.8794     1.4770    39.0915 </r>
       <r>    10.0087     0.3537    39.1373 </r>
       <r>    10.1380     1.1658    39.2880 </r>
       <r>    10.2673     0.5570    39.3600 </r>
       <r>    10.3966     0.0150    39.3619 </r>
       <r>    10.5259     1.7460    39.5877 </r>
       <r>    10.6552     2.2651    39.8805 </r>
       <r>    10.7845     0.0989    39.8933 </r>
       <r>    10.9137     0.0000    39.8933 </r>
       <r>    11.0430     0.0000    39.8933 </r>
       <r>    11.1723     0.0000    39.8933 </r>
       <r>    11.3016     0.0088    39.8945 </r>
       <r>    11.4309     0.7436    39.9906 </r>
       <r>    11.5602     0.0726    40.0000 </r>
       <r>    11.6895     0.0000    40.0000 </r>
       <r>    11.8188     0.0000    40.0000 </r>
       <r>    11.9481     0.0000    40.0000 </r>
       <r>    12.0774     0.0000    40.0000 </r>
       <r>    12.2067     0.0000    40.0000 </r>
       <r>    12.3360     0.0000    40.0000 </r>
       <r>    12.4652     0.0000    40.0000 </r>
       <r>    12.5945     0.0000    40.0000 </r>
       <r>    12.7238     0.0000    40.0000 </r>
       <r>    12.8531     0.0000    40.0000 </r>
       <r>    12.9824     0.0000    40.0000 </r>
       <r>    13.1117     0.0000    40.0000 </r>
       <r>    13.2410     0.0000    40.0000 </r>
       <r>    13.3703     0.0000    40.0000 </r>
       <r>    13.4996     0.0000    40.0000 </r>
       <r>    13.6289     0.0000    40.0000 </r>
       <r>    13.7582     0.0000    40.0000 </r>
       <r>    13.8874     0.0000    40.0000 </r>
       <r>    14.0167     0.0000    40.0000 </r>
       <r>    14.1460     0.0000    40.0000 </r>
       <r>    14.2753     0.0000    40.0000 </r>
       <r>    14.4046     0.0000    40.0000 </r>
       <r>    14.5339     0.0000    40.0000 </r>
       <r>    14.6632     0.0000    40.0000 </r>
       <r>    14.7925     0.0000    40.0000 </r>
       <r>    14.9218     0.0000    40.0000 </r>
       <r>    15.0511     0.0000    40.0000 </r>
       <r>    15.1804     0.0000    40.0000 </r>
       <r>    15.3097     0.0000    40.0000 </r>
       <r>    15.4389     0.0000    40.0000 </r>
       <r>    15.5682     0.0000    40.0000 </r>
      </set>
     </set>
    </array>
   </total>
  </dos>
 </calculation>
 <structure name="finalpos" >
  <crystal>
   <varray name="basis" >
    <v>       4.30014086       0.00000000       0.00000000 </v>
    <v>       0.00000000       4.30014086       0.00000000 </v>
    <v>       0.00000000       0.00000000       6.14586115 </v>
   </varray>
   <i name="volume">    113.64441771 </i>
   <varray name="rec_basis" >
    <v>       0.23255052       0.00000000       0.00000000 </v>
    <v>       0.00000000       0.23255052       0.00000000 </v>
    <v>       0.00000000       0.00000000       0.16271113 </v>
   </varray>
  </crystal>
  <varray name="positions" >
   <v>       0.50000000       0.00000000       0.72573602 </v>
   <v>       0.00000000       0.50000000       0.27426400 </v>
   <v>       0.00000000       0.00000000       0.00000000 </v>
   <v>       0.50000000       0.50000000       0.50000000 </v>
  </varray>
 </structure>
</modeling>
