   4   4   0   0
  0.2841110E+02  0.4300141E-09  0.4300141E-09  0.6145861E-09  0.5000000E-15
  1.000000000000000E-004
  CAR 
 Ga2BiAs                                 
     15.55442117    -22.91472582  301      3.18439068      1.00000000
    -22.915  0.0000E+00  0.0000E+00
    -22.786  0.0000E+00  0.0000E+00
    -22.658  0.0000E+00  0.0000E+00
    -22.530 -0.2364E-26 -0.3032E-27
    -22.402 -0.4652E-22 -0.5965E-23
    -22.274 -0.3995E-18 -0.5123E-19
    -22.145 -0.1495E-14 -0.1918E-15
    -22.017 -0.2355E-11 -0.3021E-12
    -21.889 -0.1647E-08 -0.2115E-09
    -21.761 -0.4950E-06 -0.6368E-07
    -21.632 -0.6326E-04 -0.8176E-05
    -21.504 -0.3368E-02 -0.4401E-03
    -21.376 -0.7129E-01 -0.9582E-02
    -21.248 -0.5189E+00 -0.7612E-01
    -21.119 -0.3209E+00 -0.1173E+00
    -20.991  0.6699E+01  0.7418E+00
    -20.863  0.1581E+02  0.2769E+01
    -20.735  0.9810E+01  0.4027E+01
    -20.607  0.6277E+00  0.4108E+01
    -20.478 -0.6938E+00  0.4019E+01
    -20.350 -0.1366E+00  0.4001E+01
    -20.222 -0.8411E-02  0.4000E+01
    -20.094 -0.2012E-03  0.4000E+01
    -19.965 -0.1987E-05  0.4000E+01
    -19.837 -0.8312E-08  0.4000E+01
    -19.709 -0.1491E-10  0.4000E+01
    -19.581 -0.1053E-13  0.4000E+01
    -19.453 -0.5192E-22  0.4000E+01
    -19.324 -0.4464E-18  0.4000E+01
    -19.196 -0.1680E-14  0.4000E+01
    -19.068 -0.2671E-11  0.4000E+01
    -18.940 -0.1895E-08  0.4000E+01
    -18.811 -0.5806E-06  0.4000E+01
    -18.683 -0.7608E-04  0.4000E+01
    -18.555 -0.4180E-02  0.3999E+01
    -18.427 -0.9211E-01  0.3988E+01
    -18.298 -0.7120E+00  0.3896E+01
    -18.170 -0.6553E+00  0.3812E+01
    -18.042  0.8982E+01  0.4964E+01
    -17.914  0.2328E+02  0.7950E+01
    -17.786  0.1583E+02  0.9980E+01
    -17.657  0.1502E+01  0.1017E+02
    -17.529 -0.1085E+01  0.1003E+02
    -17.401 -0.2408E+00  0.1000E+02
    -17.273 -0.1618E-01  0.1000E+02
    -17.144 -0.4206E-03  0.1000E+02
    -17.016 -0.4521E-05  0.1000E+02
    -16.888 -0.2063E-07  0.1000E+02
    -16.760 -0.4048E-10  0.1000E+02
    -16.631 -0.3473E-13  0.1000E+02
    -16.503  0.0000E+00  0.1000E+02
    -16.375  0.0000E+00  0.1000E+02
    -16.247  0.0000E+00  0.1000E+02
    -16.119  0.0000E+00  0.1000E+02
    -15.990  0.0000E+00  0.1000E+02
    -15.862  0.0000E+00  0.1000E+02
    -15.734  0.0000E+00  0.1000E+02
    -15.606  0.0000E+00  0.1000E+02
    -15.477  0.0000E+00  0.1000E+02
    -15.349  0.0000E+00  0.1000E+02
    -15.221  0.0000E+00  0.1000E+02
    -15.093  0.0000E+00  0.1000E+02
    -14.964  0.0000E+00  0.1000E+02
    -14.836  0.0000E+00  0.1000E+02
    -14.708  0.0000E+00  0.1000E+02
    -14.580  0.0000E+00  0.1000E+02
    -14.452  0.0000E+00  0.1000E+02
    -14.323  0.0000E+00  0.1000E+02
    -14.195  0.0000E+00  0.1000E+02
    -14.067  0.0000E+00  0.1000E+02
    -13.939  0.0000E+00  0.1000E+02
    -13.810  0.0000E+00  0.1000E+02
    -13.682  0.0000E+00  0.1000E+02
    -13.554  0.0000E+00  0.1000E+02
    -13.426  0.0000E+00  0.1000E+02
    -13.297  0.0000E+00  0.1000E+02
    -13.169  0.0000E+00  0.1000E+02
    -13.041  0.0000E+00  0.1000E+02
    -12.913  0.0000E+00  0.1000E+02
    -12.785  0.0000E+00  0.1000E+02
    -12.656  0.0000E+00  0.1000E+02
    -12.528  0.0000E+00  0.1000E+02
    -12.400  0.0000E+00  0.1000E+02
    -12.272  0.0000E+00  0.1000E+02
    -12.143  0.0000E+00  0.1000E+02
    -12.015  0.0000E+00  0.1000E+02
    -11.887  0.0000E+00  0.1000E+02
    -11.759  0.0000E+00  0.1000E+02
    -11.630  0.0000E+00  0.1000E+02
    -11.502  0.0000E+00  0.1000E+02
    -11.374  0.0000E+00  0.1000E+02
    -11.246  0.0000E+00  0.1000E+02
    -11.118  0.0000E+00  0.1000E+02
    -10.989  0.0000E+00  0.1000E+02
    -10.861 -0.2590E-32  0.1000E+02
    -10.733 -0.9214E-28  0.1000E+02
    -10.605 -0.1431E-23  0.1000E+02
    -10.476 -0.9701E-20  0.1000E+02
    -10.348 -0.2866E-16  0.1000E+02
    -10.220 -0.3560E-13  0.1000E+02
    -10.092 -0.1973E-10  0.1000E+02
     -9.963 -0.4745E-08  0.1000E+02
     -9.835 -0.4957E-06  0.1000E+02
     -9.707 -0.2262E-04  0.1000E+02
     -9.579 -0.4556E-03  0.1000E+02
     -9.451 -0.4036E-02  0.9999E+01
     -9.322 -0.1358E-01  0.9998E+01
     -9.194  0.1110E-01  0.9999E+01
     -9.066  0.1953E+00  0.1002E+02
     -8.938  0.5136E+00  0.1009E+02
     -8.809  0.6573E+00  0.1017E+02
     -8.681  0.8415E+00  0.1028E+02
     -8.553  0.1349E+01  0.1046E+02
     -8.425  0.1330E+01  0.1063E+02
     -8.296  0.1217E+01  0.1078E+02
     -8.168  0.1993E+01  0.1104E+02
     -8.040  0.2667E+01  0.1138E+02
     -7.912  0.2765E+01  0.1173E+02
     -7.784  0.3207E+01  0.1215E+02
     -7.655  0.3990E+01  0.1266E+02
     -7.527  0.4331E+01  0.1321E+02
     -7.399  0.3635E+01  0.1368E+02
     -7.271  0.2021E+01  0.1394E+02
     -7.142  0.5814E+00  0.1401E+02
     -7.014 -0.2321E-01  0.1401E+02
     -6.886 -0.5841E-01  0.1400E+02
     -6.758 -0.1167E-01  0.1400E+02
     -6.629 -0.8298E-03  0.1400E+02
     -6.501 -0.2378E-04  0.1400E+02
     -6.373 -0.2854E-06  0.1400E+02
     -6.245 -0.1460E-08  0.1400E+02
     -6.117 -0.3212E-11  0.1400E+02
     -5.988 -0.3025E-14  0.1400E+02
     -5.860  0.0000E+00  0.1400E+02
     -5.732  0.0000E+00  0.1400E+02
     -5.604  0.0000E+00  0.1400E+02
     -5.475  0.0000E+00  0.1400E+02
     -5.347  0.0000E+00  0.1400E+02
     -5.219 -0.3805E-29  0.1400E+02
     -5.091 -0.8758E-25  0.1400E+02
     -4.962 -0.8875E-21  0.1400E+02
     -4.834 -0.3961E-17  0.1400E+02
     -4.706 -0.7569E-14  0.1400E+02
     -4.578 -0.6482E-11  0.1400E+02
     -4.450 -0.2440E-08  0.1400E+02
     -4.321 -0.4015E-06  0.1400E+02
     -4.193 -0.2871E-04  0.1400E+02
     -4.065 -0.8829E-03  0.1400E+02
     -3.937 -0.1137E-01  0.1400E+02
     -3.808 -0.5597E-01  0.1399E+02
     -3.680 -0.4018E-01  0.1399E+02
     -3.552  0.5312E+00  0.1405E+02
     -3.424  0.2189E+01  0.1433E+02
     -3.295  0.4130E+01  0.1486E+02
     -3.167  0.4331E+01  0.1542E+02
     -3.039  0.3093E+01  0.1582E+02
     -2.911  0.2606E+01  0.1615E+02
     -2.783  0.2202E+01  0.1643E+02
     -2.654  0.1111E+01  0.1658E+02
     -2.526  0.8917E+00  0.1669E+02
     -2.398  0.1162E+01  0.1684E+02
     -2.270  0.1332E+01  0.1701E+02
     -2.141  0.1410E+01  0.1719E+02
     -2.013  0.8783E+00  0.1730E+02
     -1.885  0.2334E+00  0.1733E+02
     -1.757  0.4511E-01  0.1734E+02
     -1.628  0.3761E+00  0.1739E+02
     -1.500  0.8134E+00  0.1749E+02
     -1.372  0.7544E+00  0.1759E+02
     -1.244  0.5967E+00  0.1766E+02
     -1.116  0.4923E+00  0.1773E+02
     -0.987  0.2093E+00  0.1775E+02
     -0.859  0.2285E-01  0.1776E+02
     -0.731  0.3798E+00  0.1781E+02
     -0.603  0.1258E+01  0.1797E+02
     -0.474  0.1801E+01  0.1820E+02
     -0.346  0.1886E+01  0.1844E+02
     -0.218  0.2204E+01  0.1872E+02
     -0.090  0.2498E+01  0.1904E+02
      0.039  0.2427E+01  0.1935E+02
      0.167  0.2959E+01  0.1973E+02
      0.295  0.3254E+01  0.2015E+02
      0.423  0.2553E+01  0.2048E+02
      0.551  0.2661E+01  0.2082E+02
      0.680  0.3608E+01  0.2128E+02
      0.808  0.4066E+01  0.2180E+02
      0.936  0.3678E+01  0.2228E+02
      1.064  0.2965E+01  0.2266E+02
      1.193  0.2745E+01  0.2301E+02
      1.321  0.2778E+01  0.2336E+02
      1.449  0.2318E+01  0.2366E+02
      1.577  0.1727E+01  0.2388E+02
      1.706  0.1744E+01  0.2411E+02
      1.834  0.2060E+01  0.2437E+02
      1.962  0.2096E+01  0.2464E+02
      2.090  0.1961E+01  0.2489E+02
      2.218  0.1639E+01  0.2510E+02
      2.347  0.1235E+01  0.2526E+02
      2.475  0.1139E+01  0.2541E+02
      2.603  0.1282E+01  0.2557E+02
      2.731  0.1237E+01  0.2573E+02
      2.860  0.8187E+00  0.2583E+02
      2.988  0.4317E+00  0.2589E+02
      3.116  0.5252E+00  0.2596E+02
      3.244  0.5959E+00  0.2603E+02
      3.373  0.2229E+00  0.2606E+02
      3.501  0.1242E+00  0.2608E+02
      3.629  0.5960E+00  0.2615E+02
      3.757  0.8478E+00  0.2626E+02
      3.885  0.6804E+00  0.2635E+02
      4.014  0.8931E+00  0.2646E+02
      4.142  0.1222E+01  0.2662E+02
      4.270  0.1454E+01  0.2681E+02
      4.398  0.2082E+01  0.2707E+02
      4.527  0.2919E+01  0.2745E+02
      4.655  0.3271E+01  0.2787E+02
      4.783  0.3019E+01  0.2825E+02
      4.911  0.2760E+01  0.2861E+02
      5.040  0.2460E+01  0.2892E+02
      5.168  0.2461E+01  0.2924E+02
      5.296  0.2867E+01  0.2961E+02
      5.424  0.2656E+01  0.2995E+02
      5.552  0.1701E+01  0.3017E+02
      5.681  0.1300E+01  0.3033E+02
      5.809  0.1928E+01  0.3058E+02
      5.937  0.2061E+01  0.3084E+02
      6.065  0.1695E+01  0.3106E+02
      6.194  0.1486E+01  0.3125E+02
      6.322  0.1221E+01  0.3141E+02
      6.450  0.1392E+01  0.3159E+02
      6.578  0.2071E+01  0.3185E+02
      6.707  0.3473E+01  0.3230E+02
      6.835  0.4096E+01  0.3282E+02
      6.963  0.3558E+01  0.3328E+02
      7.091  0.3068E+01  0.3367E+02
      7.219  0.2649E+01  0.3401E+02
      7.348  0.2802E+01  0.3437E+02
      7.476  0.3278E+01  0.3479E+02
      7.604  0.3188E+01  0.3520E+02
      7.732  0.2504E+01  0.3552E+02
      7.861  0.2587E+01  0.3585E+02
      7.989  0.3440E+01  0.3629E+02
      8.117  0.3592E+01  0.3676E+02
      8.245  0.3211E+01  0.3717E+02
      8.374  0.2929E+01  0.3754E+02
      8.502  0.2858E+01  0.3791E+02
      8.630  0.2738E+01  0.3826E+02
      8.758  0.2423E+01  0.3857E+02
      8.886  0.1884E+01  0.3881E+02
      9.015  0.1680E+01  0.3903E+02
      9.143  0.2110E+01  0.3930E+02
      9.271  0.2412E+01  0.3961E+02
      9.399  0.2736E+01  0.3996E+02
      9.528  0.3008E+01  0.4034E+02
      9.656  0.2588E+01  0.4068E+02
      9.784  0.1974E+01  0.4093E+02
      9.912  0.1718E+01  0.4115E+02
     10.041  0.2016E+01  0.4141E+02
     10.169  0.2268E+01  0.4170E+02
     10.297  0.2512E+01  0.4202E+02
     10.425  0.2740E+01  0.4237E+02
     10.553  0.2863E+01  0.4274E+02
     10.682  0.2978E+01  0.4312E+02
     10.810  0.2958E+01  0.4350E+02
     10.938  0.2601E+01  0.4383E+02
     11.066  0.2923E+01  0.4421E+02
     11.195  0.3606E+01  0.4467E+02
     11.323  0.3441E+01  0.4511E+02
     11.451  0.3138E+01  0.4552E+02
     11.579  0.3261E+01  0.4593E+02
     11.708  0.2753E+01  0.4629E+02
     11.836  0.1604E+01  0.4649E+02
     11.964  0.1158E+01  0.4664E+02
     12.092  0.1550E+01  0.4684E+02
     12.220  0.1613E+01  0.4705E+02
     12.349  0.1450E+01  0.4723E+02
     12.477  0.1412E+01  0.4741E+02
     12.605  0.8304E+00  0.4752E+02
     12.733  0.3103E+00  0.4756E+02
     12.862  0.3434E+00  0.4760E+02
     12.990  0.5938E+00  0.4768E+02
     13.118  0.8309E+00  0.4779E+02
     13.246  0.7674E+00  0.4788E+02
     13.375  0.4849E+00  0.4795E+02
     13.503  0.2806E+00  0.4798E+02
     13.631  0.1255E+00  0.4800E+02
     13.759  0.1987E-01  0.4800E+02
     13.887 -0.7992E-02  0.4800E+02
     14.016 -0.3315E-02  0.4800E+02
     14.144 -0.3823E-03  0.4800E+02
     14.272 -0.1700E-04  0.4800E+02
     14.400 -0.3124E-06  0.4800E+02
     14.529 -0.2436E-08  0.4800E+02
     14.657 -0.8156E-11  0.4800E+02
     14.785 -0.1181E-13  0.4800E+02
     14.913  0.0000E+00  0.4800E+02
     15.041  0.0000E+00  0.4800E+02
     15.170  0.0000E+00  0.4800E+02
     15.298  0.0000E+00  0.4800E+02
     15.426  0.0000E+00  0.4800E+02
     15.554  0.0000E+00  0.4800E+02
