    4    4    1    1
  0.2841110E+02  0.4300141E-09  0.4300141E-09  0.6145861E-09  0.5000000E-15
  1.000000000000000E-004
  CAR 
 Ga2BiAs                                 
     26    245     48
 
  0.0000000E+00  0.0000000E+00  0.0000000E+00  0.4081633E-02
    1      -20.911981   1.000000
    2      -20.911980   1.000000
    3      -20.909922   1.000000
    4      -20.909920   1.000000
    5      -17.969386   1.000000
    6      -17.969383   1.000000
    7      -17.949886   1.000000
    8      -17.949883   1.000000
    9      -17.941716   1.000000
   10      -17.941713   1.000000
   11       -9.150391   1.000000
   12       -9.150376   1.000000
   13       -7.397518   1.000000
   14       -7.397506   1.000000
   15       -3.558506   1.000000
   16       -3.558487   1.000000
   17        0.279096   1.000000
   18        0.279106   1.000000
   19        0.568042   1.000000
   20        0.568053   1.000000
   21        1.852403   1.000000
   22        1.852439   1.000000
   23        2.167424   1.000000
   24        2.167429   1.000000
   25        3.322930   0.042703
   26        3.322933   0.042696
   27        3.623998  -0.004005
   28        3.624001  -0.004005
   29        4.170453  -0.000000
   30        4.170486  -0.000000
   31        4.391341  -0.000000
   32        4.391387  -0.000000
   33        6.059585  -0.000000
   34        6.059598  -0.000000
   35        6.275463  -0.000000
   36        6.275480  -0.000000
   37        6.415066  -0.000000
   38        6.415081  -0.000000
   39        8.891399   0.000000
   40        8.891454   0.000000
   41       11.146628   0.000000
   42       11.146647   0.000000
   43       11.592205   0.000000
   44       11.592227   0.000000
   45       12.071617   0.000000
   46       12.071733   0.000000
   47       12.191383   0.000000
   48       12.193331   0.000000
 
  0.1428571E+00  0.0000000E+00  0.0000000E+00  0.4081633E-02
    1      -20.912854   1.000000
    2      -20.911999   1.000000
    3      -20.910031   1.000000
    4      -20.908143   1.000000
    5      -17.970848   1.000000
    6      -17.966177   1.000000
    7      -17.950620   1.000000
    8      -17.949203   1.000000
    9      -17.942441   1.000000
   10      -17.941013   1.000000
   11       -9.032280   1.000000
   12       -9.032149   1.000000
   13       -7.394464   1.000000
   14       -7.390518   1.000000
   15       -3.554066   1.000000
   16       -3.459828   1.000000
   17       -0.274015   1.000000
   18       -0.109700   1.000000
   19        0.467526   1.000000
   20        0.510336   1.000000
   21        0.789060   1.000000
   22        0.921983   1.000000
   23        2.063681   1.000000
   24        2.406894   1.000000
   25        3.069558   0.908083
   26        3.215739   0.369146
   27        3.726386  -0.000431
   28        3.762631  -0.000169
   29        4.467047  -0.000000
   30        4.542914  -0.000000
   31        5.283644  -0.000000
   32        5.326447  -0.000000
   33        6.132298  -0.000000
   34        6.210586  -0.000000
   35        6.308835  -0.000000
   36        6.359310  -0.000000
   37        6.970912  -0.000000
   38        7.169334  -0.000000
   39        9.662031   0.000000
   40        9.677677   0.000000
   41       10.224540   0.000000
   42       10.507575   0.000000
   43       10.643167   0.000000
   44       10.690436   0.000000
   45       11.470076   0.000000
   46       11.487874   0.000000
   47       11.615400   0.000000
   48       11.676648   0.000000
 
  0.2857143E+00  0.0000000E+00  0.0000000E+00  0.4081633E-02
    1      -20.913381   1.000000
    2      -20.912551   1.000000
    3      -20.908941   1.000000
    4      -20.906355   1.000000
    5      -17.969794   1.000000
    6      -17.964174   1.000000
    7      -17.951337   1.000000
    8      -17.950833   1.000000
    9      -17.940284   1.000000
   10      -17.939963   1.000000
   11       -8.698383   1.000000
   12       -8.698104   1.000000
   13       -7.457235   1.000000
   14       -7.451804   1.000000
   15       -3.439722   1.000000
   16       -3.275398   1.000000
   17       -1.058850   1.000000
   18       -1.049527   1.000000
   19       -0.656543   1.000000
   20       -0.117356   1.000000
   21        0.809192   1.000000
   22        0.877209   1.000000
   23        1.161206   1.000000
   24        1.584753   1.000000
   25        2.804012   1.010834
   26        2.917623   1.033884
   27        4.061548  -0.000000
   28        4.107667  -0.000000
   29        4.924414  -0.000000
   30        5.091151  -0.000000
   31        6.454250  -0.000000
   32        6.532243  -0.000000
   33        6.696468  -0.000000
   34        6.751477  -0.000000
   35        7.095572  -0.000000
   36        7.150080  -0.000000
   37        7.997471  -0.000000
   38        8.307949  -0.000000
   39        9.123384   0.000000
   40        9.371099   0.000000
   41        9.542572   0.000000
   42        9.627796   0.000000
   43       10.324867   0.000000
   44       10.507030   0.000000
   45       10.655996   0.000000
   46       10.708976   0.000000
   47       11.097406   0.000000
   48       11.124384   0.000000
 
  0.4285714E+00  0.0000000E+00  0.0000000E+00  0.4081633E-02
    1      -20.913448   1.000000
    2      -20.913134   1.000000
    3      -20.907231   1.000000
    4      -20.906025   1.000000
    5      -17.967495   1.000000
    6      -17.965064   1.000000
    7      -17.952377   1.000000
    8      -17.952234   1.000000
    9      -17.938181   1.000000
   10      -17.937892   1.000000
   11       -8.227862   1.000000
   12       -8.227036   1.000000
   13       -7.725476   1.000000
   14       -7.722413   1.000000
   15       -3.080673   1.000000
   16       -2.925986   1.000000
   17       -2.193859   1.000000
   18       -2.093746   1.000000
   19       -0.607754   1.000000
   20       -0.126141   1.000000
   21        0.113634   1.000000
   22        0.567506   1.000000
   23        1.178943   1.000000
   24        1.190652   1.000000
   25        2.547509   1.000032
   26        2.585803   1.000097
   27        4.360255  -0.000000
   28        4.381011  -0.000000
   29        5.356550  -0.000000
   30        5.448400  -0.000000
   31        7.108292  -0.000000
   32        7.164509  -0.000000
   33        7.364427  -0.000000
   34        7.418531  -0.000000
   35        7.546376  -0.000000
   36        7.583254  -0.000000
   37        7.994870  -0.000000
   38        8.278894  -0.000000
   39        8.592867  -0.000000
   40        8.645299   0.000000
   41        8.732937   0.000000
   42        8.846803   0.000000
   43       10.483532   0.000000
   44       10.530107   0.000000
   45       10.593297   0.000000
   46       10.622377   0.000000
   47       11.066818   0.000000
   48       11.109965   0.000000
 
 -0.4285714E+00  0.0000000E+00  0.0000000E+00  0.4081633E-02
    1      -20.913447   1.000000
    2      -20.913135   1.000000
    3      -20.907230   1.000000
    4      -20.906026   1.000000
    5      -17.967496   1.000000
    6      -17.965063   1.000000
    7      -17.952375   1.000000
    8      -17.952236   1.000000
    9      -17.938181   1.000000
   10      -17.937892   1.000000
   11       -8.227870   1.000000
   12       -8.227028   1.000000
   13       -7.725468   1.000000
   14       -7.722420   1.000000
   15       -3.080684   1.000000
   16       -2.925973   1.000000
   17       -2.193849   1.000000
   18       -2.093757   1.000000
   19       -0.607744   1.000000
   20       -0.126151   1.000000
   21        0.113624   1.000000
   22        0.567516   1.000000
   23        1.178953   1.000000
   24        1.190642   1.000000
   25        2.547507   1.000032
   26        2.585805   1.000097
   27        4.360275  -0.000000
   28        4.380991  -0.000000
   29        5.356564  -0.000000
   30        5.448388  -0.000000
   31        7.108304  -0.000000
   32        7.164492  -0.000000
   33        7.364439  -0.000000
   34        7.418522  -0.000000
   35        7.546395  -0.000000
   36        7.583234  -0.000000
   37        7.994863  -0.000000
   38        8.278889  -0.000000
   39        8.592870  -0.000000
   40        8.645308   0.000000
   41        8.732964   0.000000
   42        8.846778   0.000000
   43       10.483540   0.000000
   44       10.530098   0.000000
   45       10.593317   0.000000
   46       10.622357   0.000000
   47       11.066809   0.000000
   48       11.109974   0.000000
 
 -0.2857143E+00  0.0000000E+00  0.0000000E+00  0.4081633E-02
    1      -20.913380   1.000000
    2      -20.912551   1.000000
    3      -20.908941   1.000000
    4      -20.906357   1.000000
    5      -17.969795   1.000000
    6      -17.964173   1.000000
    7      -17.951340   1.000000
    8      -17.950830   1.000000
    9      -17.940285   1.000000
   10      -17.939962   1.000000
   11       -8.698391   1.000000
   12       -8.698096   1.000000
   13       -7.457228   1.000000
   14       -7.451811   1.000000
   15       -3.439732   1.000000
   16       -3.275387   1.000000
   17       -1.058836   1.000000
   18       -1.049541   1.000000
   19       -0.656535   1.000000
   20       -0.117365   1.000000
   21        0.809199   1.000000
   22        0.877200   1.000000
   23        1.161201   1.000000
   24        1.584762   1.000000
   25        2.804011   1.010833
   26        2.917624   1.033884
   27        4.061566  -0.000000
   28        4.107647  -0.000000
   29        4.924432  -0.000000
   30        5.091136  -0.000000
   31        6.454262  -0.000000
   32        6.532226  -0.000000
   33        6.696482  -0.000000
   34        6.751465  -0.000000
   35        7.095553  -0.000000
   36        7.150099  -0.000000
   37        7.997454  -0.000000
   38        8.307966  -0.000000
   39        9.123369   0.000000
   40        9.371098   0.000000
   41        9.542581   0.000000
   42        9.627807   0.000000
   43       10.324882   0.000000
   44       10.507012   0.000000
   45       10.656001   0.000000
   46       10.708972   0.000000
   47       11.097426   0.000000
   48       11.124371   0.000000
 
 -0.1428571E+00  0.0000000E+00  0.0000000E+00  0.4081633E-02
    1      -20.912852   1.000000
    2      -20.911999   1.000000
    3      -20.910031   1.000000
    4      -20.908144   1.000000
    5      -17.970850   1.000000
    6      -17.966176   1.000000
    7      -17.950622   1.000000
    8      -17.949200   1.000000
    9      -17.942442   1.000000
   10      -17.941012   1.000000
   11       -9.032289   1.000000
   12       -9.032140   1.000000
   13       -7.394457   1.000000
   14       -7.390524   1.000000
   15       -3.554076   1.000000
   16       -3.459817   1.000000
   17       -0.274004   1.000000
   18       -0.109713   1.000000
   19        0.467525   1.000000
   20        0.510343   1.000000
   21        0.789063   1.000000
   22        0.921975   1.000000
   23        2.063675   1.000000
   24        2.406899   1.000000
   25        3.069562   0.908075
   26        3.215737   0.369151
   27        3.726397  -0.000431
   28        3.762617  -0.000169
   29        4.467068  -0.000000
   30        4.542897  -0.000000
   31        5.283623  -0.000000
   32        5.326467  -0.000000
   33        6.132309  -0.000000
   34        6.210573  -0.000000
   35        6.308844  -0.000000
   36        6.359301  -0.000000
   37        6.970902  -0.000000
   38        7.169345  -0.000000
   39        9.662061   0.000000
   40        9.677648   0.000000
   41       10.224528   0.000000
   42       10.507568   0.000000
   43       10.643177   0.000000
   44       10.690446   0.000000
   45       11.470073   0.000000
   46       11.487865   0.000000
   47       11.615401   0.000000
   48       11.676599   0.000000
 
  0.0000000E+00  0.1428571E+00  0.0000000E+00  0.4081633E-02
    1      -20.912854   1.000000
    2      -20.911999   1.000000
    3      -20.910031   1.000000
    4      -20.908143   1.000000
    5      -17.970848   1.000000
    6      -17.966177   1.000000
    7      -17.950620   1.000000
    8      -17.949203   1.000000
    9      -17.942441   1.000000
   10      -17.941013   1.000000
   11       -9.032280   1.000000
   12       -9.032149   1.000000
   13       -7.394464   1.000000
   14       -7.390518   1.000000
   15       -3.554066   1.000000
   16       -3.459828   1.000000
   17       -0.274015   1.000000
   18       -0.109700   1.000000
   19        0.467526   1.000000
   20        0.510336   1.000000
   21        0.789060   1.000000
   22        0.921983   1.000000
   23        2.063681   1.000000
   24        2.406894   1.000000
   25        3.069558   0.908083
   26        3.215738   0.369147
   27        3.726386  -0.000431
   28        3.762631  -0.000169
   29        4.467047  -0.000000
   30        4.542914  -0.000000
   31        5.283645  -0.000000
   32        5.326447  -0.000000
   33        6.132297  -0.000000
   34        6.210586  -0.000000
   35        6.308835  -0.000000
   36        6.359310  -0.000000
   37        6.970911  -0.000000
   38        7.169334  -0.000000
   39        9.662030   0.000000
   40        9.677677   0.000000
   41       10.224540   0.000000
   42       10.507576   0.000000
   43       10.643166   0.000000
   44       10.690436   0.000000
   45       11.470076   0.000000
   46       11.487874   0.000000
   47       11.615406   0.000000
   48       11.676786   0.000000
 
  0.1428571E+00  0.1428571E+00  0.0000000E+00  0.4081633E-02
    1      -20.913357   1.000000
    2      -20.912295   1.000000
    3      -20.909366   1.000000
    4      -20.907202   1.000000
    5      -17.971100   1.000000
    6      -17.964489   1.000000
    7      -17.950711   1.000000
    8      -17.948503   1.000000
    9      -17.943116   1.000000
   10      -17.940655   1.000000
   11       -8.915277   1.000000
   12       -8.915105   1.000000
   13       -7.380234   1.000000
   14       -7.374934   1.000000
   15       -3.536322   1.000000
   16       -3.406832   1.000000
   17       -0.306695   1.000000
   18       -0.236684   1.000000
   19       -0.203962   1.000000
   20        0.099297   1.000000
   21        0.517821   1.000000
   22        0.583766   1.000000
   23        1.943676   1.000000
   24        1.963343   1.000000
   25        2.529098   1.000018
   26        2.682102   1.001100
   27        4.376290  -0.000000
   28        4.410584  -0.000000
   29        5.116166  -0.000000
   30        5.362317  -0.000000
   31        5.378194  -0.000000
   32        5.385138  -0.000000
   33        5.813620  -0.000000
   34        5.821973  -0.000000
   35        7.154669  -0.000000
   36        7.284295  -0.000000
   37        7.369190  -0.000000
   38        7.651825  -0.000000
   39        9.317607   0.000000
   40        9.410965   0.000000
   41        9.755047   0.000000
   42        9.983467   0.000000
   43       10.230829   0.000000
   44       10.236065   0.000000
   45       10.404654   0.000000
   46       10.412164   0.000000
   47       12.283380   0.000000
   48       12.363070   0.000000
 
  0.2857143E+00  0.1428571E+00  0.0000000E+00  0.4081633E-02
    1      -20.913947   1.000000
    2      -20.912622   1.000000
    3      -20.908278   1.000000
    4      -20.905585   1.000000
    5      -17.970229   1.000000
    6      -17.963193   1.000000
    7      -17.951347   1.000000
    8      -17.949134   1.000000
    9      -17.941424   1.000000
   10      -17.939317   1.000000
   11       -8.585857   1.000000
   12       -8.585587   1.000000
   13       -7.413247   1.000000
   14       -7.407171   1.000000
   15       -3.458103   1.000000
   16       -3.284142   1.000000
   17       -1.248404   1.000000
   18       -1.231273   1.000000
   19       -0.634333   1.000000
   20       -0.138714   1.000000
   21        0.355238   1.000000
   22        0.460300   1.000000
   23        1.149185   1.000000
   24        1.541530   1.000000
   25        1.920604   1.000000
   26        2.322074   1.000000
   27        4.687952  -0.000000
   28        4.847829  -0.000000
   29        5.320233  -0.000000
   30        5.352678  -0.000000
   31        5.736630  -0.000000
   32        5.992673  -0.000000
   33        7.210086  -0.000000
   34        7.340893  -0.000000
   35        7.746956  -0.000000
   36        7.839744  -0.000000
   37        8.081524  -0.000000
   38        8.169032  -0.000000
   39        8.385166  -0.000000
   40        8.650242   0.000000
   41        8.727810   0.000000
   42        8.799832   0.000000
   43        9.956120   0.000000
   44       10.096724   0.000000
   45       11.435552   0.000000
   46       11.647855   0.000000
   47       11.760982   0.000000
   48       11.935729   0.000000
 
  0.4285714E+00  0.1428571E+00  0.0000000E+00  0.4081633E-02
    1      -20.914216   1.000000
    2      -20.912904   1.000000
    3      -20.906860   1.000000
    4      -20.905063   1.000000
    5      -17.968684   1.000000
    6      -17.964105   1.000000
    7      -17.952472   1.000000
    8      -17.949835   1.000000
    9      -17.939202   1.000000
   10      -17.937184   1.000000
   11       -8.127922   1.000000
   12       -8.126915   1.000000
   13       -7.643270   1.000000
   14       -7.639963   1.000000
   15       -3.154077   1.000000
   16       -2.998098   1.000000
   17       -2.341638   1.000000
   18       -2.249632   1.000000
   19       -0.508294   1.000000
   20       -0.037356   1.000000
   21        0.169492   1.000000
   22        0.589550   1.000000
   23        0.723594   1.000000
   24        0.783469   1.000000
   25        1.646375   1.000000
   26        2.116312   1.000000
   27        5.006498  -0.000000
   28        5.130730  -0.000000
   29        5.727667  -0.000000
   30        5.794814  -0.000000
   31        5.855493  -0.000000
   32        6.144655  -0.000000
   33        6.708240  -0.000000
   34        7.009413  -0.000000
   35        7.564143  -0.000000
   36        7.638029  -0.000000
   37        7.838542  -0.000000
   38        7.909145  -0.000000
   39        8.805154   0.000000
   40        8.937843   0.000000
   41        9.642758   0.000000
   42        9.912357   0.000000
   43       10.363866   0.000000
   44       10.520027   0.000000
   45       11.590184   0.000000
   46       11.739309   0.000000
   47       11.942227   0.000000
   48       11.988601   0.000000
 
 -0.4285714E+00  0.1428571E+00  0.0000000E+00  0.4081633E-02
    1      -20.914216   1.000000
    2      -20.912904   1.000000
    3      -20.906859   1.000000
    4      -20.905064   1.000000
    5      -17.968684   1.000000
    6      -17.964105   1.000000
    7      -17.952472   1.000000
    8      -17.949835   1.000000
    9      -17.939201   1.000000
   10      -17.937184   1.000000
   11       -8.127928   1.000000
   12       -8.126908   1.000000
   13       -7.643263   1.000000
   14       -7.639970   1.000000
   15       -3.154087   1.000000
   16       -2.998087   1.000000
   17       -2.341629   1.000000
   18       -2.249642   1.000000
   19       -0.508284   1.000000
   20       -0.037366   1.000000
   21        0.169483   1.000000
   22        0.589560   1.000000
   23        0.723584   1.000000
   24        0.783479   1.000000
   25        1.646376   1.000000
   26        2.116311   1.000000
   27        5.006510  -0.000000
   28        5.130715  -0.000000
   29        5.727671  -0.000000
   30        5.794803  -0.000000
   31        5.855503  -0.000000
   32        6.144656  -0.000000
   33        6.708242  -0.000000
   34        7.009411  -0.000000
   35        7.564123  -0.000000
   36        7.638043  -0.000000
   37        7.838539  -0.000000
   38        7.909152  -0.000000
   39        8.805157   0.000000
   40        8.937841   0.000000
   41        9.642752   0.000000
   42        9.912364   0.000000
   43       10.363862   0.000000
   44       10.520030   0.000000
   45       11.590195   0.000000
   46       11.739299   0.000000
   47       11.942216   0.000000
   48       11.988613   0.000000
 
 -0.2857143E+00  0.1428571E+00  0.0000000E+00  0.4081633E-02
    1      -20.913946   1.000000
    2      -20.912622   1.000000
    3      -20.908278   1.000000
    4      -20.905586   1.000000
    5      -17.970230   1.000000
    6      -17.963193   1.000000
    7      -17.951348   1.000000
    8      -17.949133   1.000000
    9      -17.941423   1.000000
   10      -17.939317   1.000000
   11       -8.585865   1.000000
   12       -8.585579   1.000000
   13       -7.413241   1.000000
   14       -7.407177   1.000000
   15       -3.458112   1.000000
   16       -3.284132   1.000000
   17       -1.248398   1.000000
   18       -1.231280   1.000000
   19       -0.634324   1.000000
   20       -0.138725   1.000000
   21        0.355237   1.000000
   22        0.460302   1.000000
   23        1.149179   1.000000
   24        1.541537   1.000000
   25        1.920606   1.000000
   26        2.322072   1.000000
   27        4.687963  -0.000000
   28        4.847815  -0.000000
   29        5.320232  -0.000000
   30        5.352680  -0.000000
   31        5.736636  -0.000000
   32        5.992670  -0.000000
   33        7.210069  -0.000000
   34        7.340910  -0.000000
   35        7.746958  -0.000000
   36        7.839744  -0.000000
   37        8.081522  -0.000000
   38        8.169025  -0.000000
   39        8.385149  -0.000000
   40        8.650264   0.000000
   41        8.727818   0.000000
   42        8.799827   0.000000
   43        9.956107   0.000000
   44       10.096737   0.000000
   45       11.435570   0.000000
   46       11.647827   0.000000
   47       11.760999   0.000000
   48       11.935722   0.000000
 
 -0.1428571E+00  0.1428571E+00  0.0000000E+00  0.4081633E-02
    1      -20.913356   1.000000
    2      -20.912295   1.000000
    3      -20.909366   1.000000
    4      -20.907203   1.000000
    5      -17.971101   1.000000
    6      -17.964488   1.000000
    7      -17.950712   1.000000
    8      -17.948502   1.000000
    9      -17.943117   1.000000
   10      -17.940654   1.000000
   11       -8.915283   1.000000
   12       -8.915099   1.000000
   13       -7.380229   1.000000
   14       -7.374938   1.000000
   15       -3.536329   1.000000
   16       -3.406825   1.000000
   17       -0.306696   1.000000
   18       -0.236673   1.000000
   19       -0.203964   1.000000
   20        0.099288   1.000000
   21        0.517825   1.000000
   22        0.583763   1.000000
   23        1.943674   1.000000
   24        1.963346   1.000000
   25        2.529101   1.000018
   26        2.682099   1.001100
   27        4.376299  -0.000000
   28        4.410573  -0.000000
   29        5.116160  -0.000000
   30        5.362310  -0.000000
   31        5.378203  -0.000000
   32        5.385144  -0.000000
   33        5.813634  -0.000000
   34        5.821958  -0.000000
   35        7.154678  -0.000000
   36        7.284286  -0.000000
   37        7.369184  -0.000000
   38        7.651833  -0.000000
   39        9.317617   0.000000
   40        9.410949   0.000000
   41        9.755041   0.000000
   42        9.983480   0.000000
   43       10.230840   0.000000
   44       10.236053   0.000000
   45       10.404635   0.000000
   46       10.412183   0.000000
   47       12.283811   0.000000
   48       12.366588   0.000000
 
  0.0000000E+00  0.2857143E+00  0.0000000E+00  0.4081633E-02
    1      -20.913381   1.000000
    2      -20.912551   1.000000
    3      -20.908941   1.000000
    4      -20.906355   1.000000
    5      -17.969794   1.000000
    6      -17.964174   1.000000
    7      -17.951337   1.000000
    8      -17.950833   1.000000
    9      -17.940284   1.000000
   10      -17.939963   1.000000
   11       -8.698383   1.000000
   12       -8.698104   1.000000
   13       -7.457235   1.000000
   14       -7.451804   1.000000
   15       -3.439722   1.000000
   16       -3.275397   1.000000
   17       -1.058849   1.000000
   18       -1.049527   1.000000
   19       -0.656543   1.000000
   20       -0.117356   1.000000
   21        0.809192   1.000000
   22        0.877209   1.000000
   23        1.161206   1.000000
   24        1.584753   1.000000
   25        2.804011   1.010833
   26        2.917623   1.033884
   27        4.061548  -0.000000
   28        4.107667  -0.000000
   29        4.924414  -0.000000
   30        5.091151  -0.000000
   31        6.454250  -0.000000
   32        6.532243  -0.000000
   33        6.696468  -0.000000
   34        6.751477  -0.000000
   35        7.095572  -0.000000
   36        7.150080  -0.000000
   37        7.997470  -0.000000
   38        8.307949  -0.000000
   39        9.123384   0.000000
   40        9.371099   0.000000
   41        9.542572   0.000000
   42        9.627796   0.000000
   43       10.324867   0.000000
   44       10.507030   0.000000
   45       10.655996   0.000000
   46       10.708976   0.000000
   47       11.097530   0.000000
   48       11.124431   0.000000
 
  0.1428571E+00  0.2857143E+00  0.0000000E+00  0.4081633E-02
    1      -20.913947   1.000000
    2      -20.912622   1.000000
    3      -20.908278   1.000000
    4      -20.905585   1.000000
    5      -17.970229   1.000000
    6      -17.963193   1.000000
    7      -17.951347   1.000000
    8      -17.949134   1.000000
    9      -17.941423   1.000000
   10      -17.939317   1.000000
   11       -8.585857   1.000000
   12       -8.585587   1.000000
   13       -7.413247   1.000000
   14       -7.407171   1.000000
   15       -3.458103   1.000000
   16       -3.284142   1.000000
   17       -1.248404   1.000000
   18       -1.231273   1.000000
   19       -0.634333   1.000000
   20       -0.138714   1.000000
   21        0.355238   1.000000
   22        0.460300   1.000000
   23        1.149184   1.000000
   24        1.541530   1.000000
   25        1.920604   1.000000
   26        2.322074   1.000000
   27        4.687952  -0.000000
   28        4.847829  -0.000000
   29        5.320233  -0.000000
   30        5.352678  -0.000000
   31        5.736630  -0.000000
   32        5.992673  -0.000000
   33        7.210086  -0.000000
   34        7.340893  -0.000000
   35        7.746956  -0.000000
   36        7.839744  -0.000000
   37        8.081524  -0.000000
   38        8.169032  -0.000000
   39        8.385165  -0.000000
   40        8.650242   0.000000
   41        8.727810   0.000000
   42        8.799832   0.000000
   43        9.956120   0.000000
   44       10.096724   0.000000
   45       11.435552   0.000000
   46       11.647855   0.000000
   47       11.760982   0.000000
   48       11.935729   0.000000
 
  0.2857143E+00  0.2857143E+00  0.0000000E+00  0.4081633E-02
    1      -20.914524   1.000000
    2      -20.912973   1.000000
    3      -20.907051   1.000000
    4      -20.904123   1.000000
    5      -17.970071   1.000000
    6      -17.963145   1.000000
    7      -17.950929   1.000000
    8      -17.948129   1.000000
    9      -17.940059   1.000000
   10      -17.938362   1.000000
   11       -8.273839   1.000000
   12       -8.273704   1.000000
   13       -7.352662   1.000000
   14       -7.346158   1.000000
   15       -3.506646   1.000000
   16       -3.333909   1.000000
   17       -1.938181   1.000000
   18       -1.926542   1.000000
   19       -0.510748   1.000000
   20       -0.128891   1.000000
   21        0.081999   1.000000
   22        0.136324   1.000000
   23        1.027093   1.000000
   24        1.066540   1.000000
   25        1.446589   1.000000
   26        1.652241   1.000000
   27        4.368770  -0.000000
   28        4.382813  -0.000000
   29        5.192949  -0.000000
   30        5.201953  -0.000000
   31        6.104347  -0.000000
   32        6.644012  -0.000000
   33        6.805540  -0.000000
   34        6.813037  -0.000000
   35        7.902863  -0.000000
   36        7.923846  -0.000000
   37        8.189243  -0.000000
   38        8.204453  -0.000000
   39        9.018962   0.000000
   40        9.166557   0.000000
   41        9.452718   0.000000
   42        9.892858   0.000000
   43       10.103296   0.000000
   44       10.210844   0.000000
   45       12.323625   0.000000
   46       12.761616   0.000000
   47       12.794191   0.000000
   48       12.997581   0.000000
 
  0.4285714E+00  0.2857143E+00  0.0000000E+00  0.4081633E-02
    1      -20.914726   1.000000
    2      -20.913320   1.000000
    3      -20.905740   1.000000
    4      -20.903486   1.000000
    5      -17.969304   1.000000
    6      -17.964604   1.000000
    7      -17.951153   1.000000
    8      -17.948250   1.000000
    9      -17.937771   1.000000
   10      -17.936378   1.000000
   11       -7.865090   1.000000
   12       -7.863866   1.000000
   13       -7.447102   1.000000
   14       -7.443559   1.000000
   15       -3.388022   1.000000
   16       -3.255910   1.000000
   17       -2.796538   1.000000
   18       -2.740523   1.000000
   19       -0.254830   1.000000
   20        0.057758   1.000000
   21        0.193624   1.000000
   22        0.283548   1.000000
   23        0.520355   1.000000
   24        0.862293   1.000000
   25        0.933309   1.000000
   26        1.404482   1.000000
   27        4.446779  -0.000000
   28        4.564495  -0.000000
   29        4.907575  -0.000000
   30        4.926438  -0.000000
   31        5.249260  -0.000000
   32        5.658900  -0.000000
   33        5.847610  -0.000000
   34        5.871464  -0.000000
   35        8.222556  -0.000000
   36        8.232158  -0.000000
   37        9.496383   0.000000
   38        9.748797   0.000000
   39        9.946695   0.000000
   40       10.070014   0.000000
   41       10.235454   0.000000
   42       10.400129   0.000000
   43       11.125600   0.000000
   44       11.676933   0.000000
   45       12.457299   0.000000
   46       12.722552   0.000000
   47       12.893469   0.000000
   48       12.924147   0.000000
 
 -0.4285714E+00  0.2857143E+00  0.0000000E+00  0.4081633E-02
    1      -20.914725   1.000000
    2      -20.913320   1.000000