       N       E                     dE             d eps       ncg     rms          rms(c)
DAV:   1     0.209250169222E+03    0.20925E+03   -0.10718E+04 23552   0.961E+02
DAV:   2     0.931021440998E+01   -0.19994E+03   -0.18952E+03 24408   0.262E+02
DAV:   3    -0.127710560803E+02   -0.22081E+02   -0.21636E+02 28592   0.101E+02
DAV:   4    -0.136229062207E+02   -0.85185E+00   -0.84806E+00 28752   0.219E+01
DAV:   5    -0.136598775699E+02   -0.36971E-01   -0.36965E-01 34720   0.429E+00    0.109E+01
DAV:   6    -0.153462998907E+02   -0.16864E+01   -0.90008E-01 30168   0.113E+01    0.399E+00
DAV:   7    -0.156166192522E+02   -0.27032E+00   -0.21032E-01 28040   0.361E+00    0.179E+00
DAV:   8    -0.156330406438E+02   -0.16421E-01   -0.70521E-02 29184   0.138E+00    0.794E-01
DAV:   9    -0.156316871388E+02    0.13535E-02   -0.10622E-02 27800   0.120E+00    0.356E-01
DAV:  10    -0.156331378748E+02   -0.14507E-02   -0.23003E-03 27144   0.560E-01    0.983E-02
DAV:  11    -0.156336621032E+02   -0.52423E-03   -0.65913E-04 27728   0.176E-01    0.532E-02
DAV:  12    -0.156338276653E+02   -0.16556E-03   -0.14174E-04 28656   0.651E-02    0.240E-02
DAV:  13    -0.156338755847E+02   -0.47919E-04   -0.39847E-05 27768   0.335E-02    0.806E-03
DAV:  14    -0.156338805568E+02   -0.49721E-05   -0.37277E-06 27064   0.110E-02    0.398E-03
DAV:  15    -0.156338821392E+02   -0.15823E-05   -0.16359E-06 25104   0.716E-03    0.168E-03
DAV:  16    -0.156338824289E+02   -0.28975E-06   -0.44097E-07 22376   0.351E-03
   1 F= -.15633882E+02 E0= -.15633068E+02  d E =-.244466E-02  mag=    -0.0000    -0.0000    -0.0000
