 vasp.5.4.4.18Apr17-6-g9f103f2a35 (build Dec 22 2021 20:15:33) complex          
  
 executed on             LinuxIFC date 2022.01.21  21:39:21
 running on   32 total cores
 distrk:  each k-point on   32 cores,    1 groups
 distr:  one band on NCORES_PER_BAND=   8 cores,    4 groups


--------------------------------------------------------------------------------------------------------


 INCAR:
 POTCAR:    PAW_PBE Ga 08Apr2002                  
 POTCAR:    PAW_PBE Bi_d 06Sep2000                
 POTCAR:    PAW_PBE As 22Sep2009                  
 POTCAR:    PAW_PBE Ga 08Apr2002                  
   VRHFIN =Ga: s2p1                                                             
   LEXCH  = PE                                                                  
   EATOM  =    58.8688 eV,    4.3267 Ry                                         
                                                                                
   TITEL  = PAW_PBE Ga 08Apr2002                                                
   LULTRA =        F    use ultrasoft PP ?                                      
   IUNSCR =        1    unscreen: 0-lin 1-nonlin 2-no                           
   RPACOR =    2.170    partial core radius                                     
   POMASS =   69.723; ZVAL   =    3.000    mass and valenz                      
   RCORE  =    2.600    outmost cutoff radius                                   
   RWIGS  =    2.650; RWIGS  =    1.402    wigner-seitz radius (au A)           
   ENMAX  =  134.678; ENMIN  =  101.009 eV                                      
   ICORE  =        3    local potential                                         
   LCOR   =        T    correct aug charges                                     
   LPAW   =        T    paw PP                                                  
   EAUG   =  320.264                                                            
   DEXC   =    0.000                                                            
   RMAX   =    2.658    core radius for proj-oper                               
   RAUG   =    1.300    factor for augmentation sphere                          
   RDEP   =    2.684    radius for radial grids                                 
   RDEPT  =    2.308    core radius for aug-charge                              
                                                                                
   Atomic configuration                                                         
   10 entries                                                                   
     n  l   j            E        occ.                                          
     1  0  0.50    -10228.7830   2.0000                                         
     2  0  0.50     -1262.1604   2.0000                                         
     2  1  1.50     -1098.6333   6.0000                                         
     3  0  0.50      -148.1110   2.0000                                         
     3  1  1.50       -98.8436   6.0000                                         
     3  2  2.50       -19.1549  10.0000                                         
     4  0  0.50        -8.9483   2.0000                                         
     4  1  0.50        -2.5791   1.0000                                         
     4  2  1.50         5.4423   0.0000                                         
     4  3  2.50        -2.7416   0.0000                                         
   Description                                                                  
     l       E           TYP  RCUT    TYP  RCUT                                 
     0     -8.9483097     23  2.600                                             
     0     -5.8232215     23  2.600                                             
     1     -2.5790793     23  2.600                                             
     1      5.2230115     23  2.600                                             
     2      1.3605826     23  2.600                                             
     3     -1.3605826      7  2.600                                             
  local pseudopotential read in
  partial core-charges read in
  partial kinetic energy density read in
  atomic valenz-charges read in
  non local Contribution for L=           0  read in
    real space projection operators read in
  non local Contribution for L=           0  read in
    real space projection operators read in
  non local Contribution for L=           1  read in
    real space projection operators read in
  non local Contribution for L=           1  read in
    real space projection operators read in
  non local Contribution for L=           2  read in
    real space projection operators read in
    PAW grid and wavefunctions read in
 
   number of l-projection  operators is LMAX  =           5
   number of lm-projection operators is LMMAX =          13
 
 POTCAR:    PAW_PBE Bi_d 06Sep2000                
   VRHFIN =Bi:                                                                  
   LEXCH  = PE                                                                  
   EATOM  =  1959.2045 eV,  143.9975 Ry                                         
                                                                                
   TITEL  = PAW_PBE Bi_d 06Sep2000                                              
   LULTRA =        F    use ultrasoft PP ?                                      
   IUNSCR =        1    unscreen: 0-lin 1-nonlin 2-no                           
   RPACOR =    2.200    partial core radius                                     
   POMASS =  208.980; ZVAL   =   15.000    mass and valenz                      
   RCORE  =    2.500    outmost cutoff radius                                   
   RWIGS  =    3.090; RWIGS  =    1.635    wigner-seitz radius (au A)           
   ENMAX  =  242.839; ENMIN  =  182.129 eV                                      
   ICORE  =        3    local potential                                         
   LCOR   =        T    correct aug charges                                     
   LPAW   =        T    paw PP                                                  
   EAUG   =  442.899                                                            
   DEXC   =    0.000                                                            
   RMAX   =    2.551    core radius for proj-oper                               
   RAUG   =    1.300    factor for augmentation sphere                          
   RDEP   =    2.650    radius for radial grids                                 
   RDEPT  =    2.039    core radius for aug-charge                              
                                                                                
   Atomic configuration                                                         
   16 entries                                                                   
     n  l   j            E        occ.                                          
     1  0  0.50    -90639.6581   2.0000                                         
     2  0  0.50    -16282.4666   2.0000                                         
     2  1  1.50    -13922.8286   6.0000                                         
     3  0  0.50     -3930.4763   2.0000                                         
     3  1  1.50     -3256.7013   6.0000                                         
     3  2  2.50     -2581.6168  10.0000                                         
     4  0  0.50      -902.2614   2.0000                                         
     4  1  1.50      -681.5915   6.0000                                         
     4  2  2.50      -429.8249  10.0000                                         
     4  3  3.50      -152.6004  14.0000                                         
     5  0  0.50      -157.7156   2.0000                                         
     5  1  1.50       -95.8054   6.0000                                         
     5  2  2.50       -27.0806  10.0000                                         
     6  0  0.50       -14.4732   2.0000                                         
     6  1  1.50        -4.5702   3.0000                                         
     5  3  2.50        -2.7212   0.0000                                         
   Description                                                                  
     l       E           TYP  RCUT    TYP  RCUT                                 
     2    -27.0805982     23  2.500                                             
     2     -1.3605826     23  2.500                                             
     0    -14.4732271     23  2.500                                             
     0      6.8029130     23  2.500                                             
     1     -4.5701651     23  2.500                                             
     1     13.6058260     23  2.500                                             
     3     -1.3605826      7  2.500                                             
  local pseudopotential read in
  partial core-charges read in
  partial kinetic energy density read in
  atomic valenz-charges read in
  non local Contribution for L=           2  read in
    real space projection operators read in
  non local Contribution for L=           2  read in
    real space projection operators read in
  non local Contribution for L=           0  read in
    real space projection operators read in
  non local Contribution for L=           0  read in
    real space projection operators read in
  non local Contribution for L=           1  read in
    real space projection operators read in
  non local Contribution for L=           1  read in
    real space projection operators read in
    PAW grid and wavefunctions read in
 
   number of l-projection  operators is LMAX  =           6
   number of lm-projection operators is LMMAX =          18
 
 POTCAR:    PAW_PBE As 22Sep2009                  
   VRHFIN =As: s2p3                                                             
   LEXCH  = PE                                                                  
   EATOM  =   170.1867 eV,   12.5084 Ry                                         
                                                                                
   TITEL  = PAW_PBE As 22Sep2009                                                
   LULTRA =        F    use ultrasoft PP ?                                      
   IUNSCR =        1    unscreen: 0-lin 1-nonlin 2-no                           
   RPACOR =    1.900    partial core radius                                     
   POMASS =   74.922; ZVAL   =    5.000    mass and valenz                      
   RCORE  =    2.100    outmost cutoff radius                                   
   RWIGS  =    2.300; RWIGS  =    1.217    wigner-seitz radius (au A)           
   ENMAX  =  208.702; ENMIN  =  156.526 eV                                      
   ICORE  =        3    local potential                                         
   LCOR   =        T    correct aug charges                                     
   LPAW   =        T    paw PP                                                  
   EAUG   =  462.758                                                            
   DEXC   =    0.000                                                            
   RMAX   =    2.144    core radius for proj-oper                               
   RAUG   =    1.300    factor for augmentation sphere                          
   RDEP   =    2.140    radius for radial grids                                 
   RDEPT  =    1.956    core radius for aug-charge                              
                                                                                
   Atomic configuration                                                         
   10 entries                                                                   
     n  l   j            E        occ.                                          
     1  0  0.50    -11718.0418   2.0000                                         
     2  0  0.50     -1486.5454   2.0000                                         
     2  1  1.50     -1303.3889   6.0000                                         
     3  0  0.50      -190.2849   2.0000                                         
     3  1  1.50      -133.6555   6.0000                                         
     3  2  2.50       -40.6443  10.0000                                         
     4  0  0.50       -14.4936   2.0000                                         
     4  1  0.50        -5.1947   3.0000                                         
     4  2  1.50        -5.4423   0.0000                                         
     4  3  2.50        -5.4423   0.0000                                         
   Description                                                                  
     l       E           TYP  RCUT    TYP  RCUT                                 
     0    -14.4935570     23  2.100                                             
     0    -11.9212055     23  2.100                                             
     1     -5.1947127     23  2.100                                             
     1     27.2116520     23  2.100                                             
     2     -5.4423304     23  2.100                                             
     3     -1.3605826      7  2.100                                             
  local pseudopotential read in
  partial core-charges read in
  partial kinetic energy density read in
  atomic valenz-charges read in
  non local Contribution for L=           0  read in
    real space projection operators read in
  non local Contribution for L=           0  read in
    real space projection operators read in
  non local Contribution for L=           1  read in
    real space projection operators read in
  non local Contribution for L=           1  read in
    real space projection operators read in
  non local Contribution for L=           2  read in
    real space projection operators read in
    PAW grid and wavefunctions read in
 
   number of l-projection  operators is LMAX  =           5
   number of lm-projection operators is LMMAX =          13
 
  PAW_PBE Ga 08Apr2002                  :
 energy of atom  1       EATOM=  -58.8688
 kinetic energy error for atom=    0.0000 (will be added to EATOM!!)
  PAW_PBE Bi_d 06Sep2000                :
 energy of atom  2       EATOM=-1959.2045
 kinetic energy error for atom=    0.0049 (will be added to EATOM!!)
  PAW_PBE As 22Sep2009                  :
 energy of atom  3       EATOM= -170.1867
 kinetic energy error for atom=    0.0005 (will be added to EATOM!!)
 
 
 POSCAR: Ga2 Bi1 As1                             
  positions in direct lattice
  No initial velocities read in
 exchange correlation table for  LEXCH =        8
   RHO(1)=    0.500       N(1)  =     2000
   RHO(2)=  100.500       N(2)  =     4000
 


--------------------------------------------------------------------------------------------------------


 ion  position               nearest neighbor table
   1  0.500  0.000  0.726-   4 2.56   4 2.56   3 2.73   3 2.73
   2  0.000  0.500  0.274-   4 2.56   4 2.56   3 2.73   3 2.73
   3  0.000  0.000  0.000-   1 2.73   1 2.73   2 2.73   2 2.73
   4  0.500  0.500  0.500-   2 2.56   2 2.56   1 2.56   1 2.56
 
  LATTYP: Found a simple tetragonal cell.
 ALAT       =     4.3001408577
 C/A-ratio  =     1.4292232167
  
  Lattice vectors:
  
 A1 = (   4.3001408577,   0.0000000000,   0.0000000000)
 A2 = (   0.0000000000,   4.3001408577,   0.0000000000)
 A3 = (   0.0000000000,   0.0000000000,   6.1458611488)


Analysis of symmetry for initial positions (statically):
=====================================================================
 Subroutine PRICEL returns:
 Original cell was already a primitive cell.
 

 Routine SETGRP: Setting up the symmetry group for a 
 simple tetragonal supercell.


 Subroutine GETGRP returns: Found  8 space group operations
 (whereof  8 operations were pure point group operations)
 out of a pool of 16 trial point group operations.


The static configuration has the point symmetry D_2d.


Analysis of symmetry for dynamics (positions and initial velocities):
=====================================================================
 Subroutine PRICEL returns:
 Original cell was already a primitive cell.
 

 Routine SETGRP: Setting up the symmetry group for a 
 simple tetragonal supercell.


 Subroutine GETGRP returns: Found  8 space group operations
 (whereof  8 operations were pure point group operations)
 out of a pool of 16 trial point group operations.


The dynamic configuration has the point symmetry D_2d.


Analysis of structural, dynamic, and magnetic symmetry:
=====================================================================
 Subroutine PRICEL returns:
 Original cell was already a primitive cell.
 

 Routine SETGRP: Setting up the symmetry group for a 
 simple tetragonal supercell.


 Subroutine GETGRP returns: Found  1 space group operations
 (whereof  1 operations were pure point group operations)
 out of a pool of 16 trial point group operations.


The (compounded) configuration has the point symmetry C_1 .


 Subroutine INISYM returns: Found  1 space group operations
 (whereof  1 operations are pure point group operations),
 and found     1 'primitive' translations

 
 
 KPOINTS: MP                                      

Automatic generation of k-mesh.
Space group operators:
 irot       det(A)        alpha          n_x          n_y          n_z        tau_x        tau_y        tau_z
    1     1.000000     0.000001     1.000000     0.000000     0.000000     0.000000     0.000000     0.000000
 
 Subroutine IBZKPT returns following result:
 ===========================================
 
 Found    245 irreducible k-points:
 
 Following reciprocal coordinates:
            Coordinates               Weight
  0.000000  0.000000  0.000000      1.000000
  0.142857  0.000000  0.000000      1.000000
  0.285714  0.000000  0.000000      1.000000
  0.428571  0.000000  0.000000      1.000000
 -0.428571  0.000000  0.000000      1.000000
 -0.285714  0.000000  0.000000      1.000000
 -0.142857  0.000000  0.000000      1.000000
  0.000000  0.142857  0.000000      1.000000
  0.142857  0.142857  0.000000      1.000000
  0.285714  0.142857  0.000000      1.000000
  0.428571  0.142857  0.000000      1.000000
 -0.428571  0.142857  0.000000      1.000000
 -0.285714  0.142857  0.000000      1.000000
 -0.142857  0.142857  0.000000      1.000000
  0.000000  0.285714  0.000000      1.000000
  0.142857  0.285714  0.000000      1.000000
  0.285714  0.285714  0.000000      1.000000
  0.428571  0.285714  0.000000      1.000000
 -0.428571  0.285714  0.000000      1.000000
 -0.285714  0.285714  0.000000      1.000000
 -0.142857  0.285714  0.000000      1.000000
  0.000000  0.428571  0.000000      1.000000
  0.142857  0.428571  0.000000      1.000000
  0.285714  0.428571  0.000000      1.000000
  0.428571  0.428571  0.000000      1.000000
 -0.428571  0.428571  0.000000      1.000000
 -0.285714  0.428571  0.000000      1.000000
 -0.142857  0.428571  0.000000      1.000000
  0.000000 -0.428571  0.000000      1.000000
  0.142857 -0.428571  0.000000      1.000000
  0.285714 -0.428571  0.000000      1.000000
  0.428571 -0.428571  0.000000      1.000000
 -0.428571 -0.428571  0.000000      1.000000
 -0.285714 -0.428571  0.000000      1.000000
 -0.142857 -0.428571  0.000000      1.000000
  0.000000 -0.285714  0.000000      1.000000
  0.142857 -0.285714  0.000000      1.000000
  0.285714 -0.285714  0.000000      1.000000
  0.428571 -0.285714  0.000000      1.000000
 -0.428571 -0.285714  0.000000      1.000000
 -0.285714 -0.285714  0.000000      1.000000
 -0.142857 -0.285714  0.000000      1.000000
  0.000000 -0.142857  0.000000      1.000000
  0.142857 -0.142857  0.000000      1.000000
  0.285714 -0.142857  0.000000      1.000000
  0.428571 -0.142857  0.000000      1.000000
 -0.428571 -0.142857  0.000000      1.000000
 -0.285714 -0.142857  0.000000      1.000000
 -0.142857 -0.142857  0.000000      1.000000
  0.000000  0.000000  0.200000      1.000000
  0.142857  0.000000  0.200000      1.000000
  0.285714  0.000000  0.200000      1.000000
  0.428571  0.000000  0.200000      1.000000
 -0.428571  0.000000  0.200000      1.000000
 -0.285714  0.000000  0.200000      1.000000
 -0.142857  0.000000  0.200000      1.000000
  0.000000  0.142857  0.200000      1.000000
  0.142857  0.142857  0.200000      1.000000
  0.285714  0.142857  0.200000      1.000000
  0.428571  0.142857  0.200000      1.000000
 -0.428571  0.142857  0.200000      1.000000
 -0.285714  0.142857  0.200000      1.000000
 -0.142857  0.142857  0.200000      1.000000
  0.000000  0.285714  0.200000      1.000000
  0.142857  0.285714  0.200000      1.000000
  0.285714  0.285714  0.200000      1.000000
  0.428571  0.285714  0.200000      1.000000
 -0.428571  0.285714  0.200000      1.000000
 -0.285714  0.285714  0.200000      1.000000
 -0.142857  0.285714  0.200000      1.000000
  0.000000  0.428571  0.200000      1.000000
  0.142857  0.428571  0.200000      1.000000
  0.285714  0.428571  0.200000      1.000000
  0.428571  0.428571  0.200000      1.000000
 -0.428571  0.428571  0.200000      1.000000
 -0.285714  0.428571  0.200000      1.000000
 -0.142857  0.428571  0.200000      1.000000
  0.000000 -0.428571  0.200000      1.000000
  0.142857 -0.428571  0.200000      1.000000
  0.285714 -0.428571  0.200000      1.000000
  0.428571 -0.428571  0.200000      1.000000
 -0.428571 -0.428571  0.200000      1.000000
 -0.285714 -0.428571  0.200000      1.000000
 -0.142857 -0.428571  0.200000      1.000000
  0.000000 -0.285714  0.200000      1.000000
  0.142857 -0.285714  0.200000      1.000000
  0.285714 -0.285714  0.200000      1.000000
  0.428571 -0.285714  0.200000      1.000000
 -0.428571 -0.285714  0.200000      1.000000
 -0.285714 -0.285714  0.200000      1.000000
 -0.142857 -0.285714  0.200000      1.000000
  0.000000 -0.142857  0.200000      1.000000
  0.142857 -0.142857  0.200000      1.000000
  0.285714 -0.142857  0.200000      1.000000
  0.428571 -0.142857  0.200000      1.000000
 -0.428571 -0.142857  0.200000      1.000000
 -0.285714 -0.142857  0.200000      1.000000
 -0.142857 -0.142857  0.200000      1.000000
  0.000000  0.000000  0.400000      1.000000
  0.142857  0.000000  0.400000      1.000000
  0.285714  0.000000  0.400000      1.000000
  0.428571  0.000000  0.400000      1.000000
 -0.428571  0.000000  0.400000      1.000000
 -0.285714  0.000000  0.400000      1.000000
 -0.142857  0.000000  0.400000      1.000000
  0.000000  0.142857  0.400000      1.000000
  0.142857  0.142857  0.400000      1.000000
  0.285714  0.142857  0.400000      1.000000
  0.428571  0.142857  0.400000      1.000000
 -0.428571  0.142857  0.400000      1.000000
 -0.285714  0.142857  0.400000      1.000000
 -0.142857  0.142857  0.400000      1.000000
  0.000000  0.285714  0.400000      1.000000
  0.142857  0.285714  0.400000      1.000000
  0.285714  0.285714  0.400000      1.000000
  0.428571  0.285714  0.400000      1.000000
 -0.428571  0.285714  0.400000      1.000000
 -0.285714  0.285714  0.400000      1.000000
 -0.142857  0.285714  0.400000      1.000000
  0.000000  0.428571  0.400000      1.000000
  0.142857  0.428571  0.400000      1.000000
  0.285714  0.428571  0.400000      1.000000
  0.428571  0.428571  0.400000      1.000000
 -0.428571  0.428571  0.400000      1.000000
 -0.285714  0.428571  0.400000      1.000000
 -0.142857  0.428571  0.400000      1.000000
  0.000000 -0.428571  0.400000      1.000000
  0.142857 -0.428571  0.400000      1.000000
  0.285714 -0.428571  0.400000      1.000000
  0.428571 -0.428571  0.400000      1.000000
 -0.428571 -0.428571  0.400000      1.000000
 -0.285714 -0.428571  0.400000      1.000000
 -0.142857 -0.428571  0.400000      1.000000
  0.000000 -0.285714  0.400000      1.000000
  0.142857 -0.285714  0.400000      1.000000
  0.285714 -0.285714  0.400000      1.000000
  0.428571 -0.285714  0.400000      1.000000
 -0.428571 -0.285714  0.400000      1.000000
 -0.285714 -0.285714  0.400000      1.000000
 -0.142857 -0.285714  0.400000      1.000000
  0.000000 -0.142857  0.400000      1.000000
  0.142857 -0.142857  0.400000      1.000000
  0.285714 -0.142857  0.400000      1.000000
  0.428571 -0.142857  0.400000      1.000000
 -0.428571 -0.142857  0.400000      1.000000
 -0.285714 -0.142857  0.400000      1.000000
 -0.142857 -0.142857  0.400000      1.000000
  0.000000  0.000000 -0.400000      1.000000
  0.142857  0.000000 -0.400000      1.000000
  0.285714  0.000000 -0.400000      1.000000
  0.428571  0.000000 -0.400000      1.000000
 -0.428571  0.000000 -0.400000      1.000000
 -0.285714  0.000000 -0.400000      1.000000
 -0.142857  0.000000 -0.400000      1.000000
  0.000000  0.142857 -0.400000      1.000000
  0.142857  0.142857 -0.400000      1.000000
  0.285714  0.142857 -0.400000      1.000000
  0.428571  0.142857 -0.400000      1.000000
 -0.428571  0.142857 -0.400000      1.000000
 -0.285714  0.142857 -0.400000      1.000000
 -0.142857  0.142857 -0.400000      1.000000
  0.000000  0.285714 -0.400000      1.000000
  0.142857  0.285714 -0.400000      1.000000
  0.285714  0.285714 -0.400000      1.000000
  0.428571  0.285714 -0.400000      1.000000
 -0.428571  0.285714 -0.400000      1.000000
 -0.285714  0.285714 -0.400000      1.000000
 -0.142857  0.285714 -0.400000      1.000000
  0.000000  0.428571 -0.400000      1.000000
  0.142857  0.428571 -0.400000      1.000000
  0.285714  0.428571 -0.400000      1.000000
  0.428571  0.428571 -0.400000      1.000000
 -0.428571  0.428571 -0.400000      1.000000
 -0.285714  0.428571 -0.400000      1.000000
 -0.142857  0.428571 -0.400000      1.000000
  0.000000 -0.428571 -0.400000      1.000000
  0.142857 -0.428571 -0.400000      1.000000
  0.285714 -0.428571 -0.400000      1.000000
  0.428571 -0.428571 -0.400000      1.000000
 -0.428571 -0.428571 -0.400000      1.000000
 -0.285714 -0.428571 -0.400000      1.000000
 -0.142857 -0.428571 -0.400000      1.000000
  0.000000 -0.285714 -0.400000      1.000000
  0.142857 -0.285714 -0.400000      1.000000
  0.285714 -0.285714 -0.400000      1.000000
  0.428571 -0.285714 -0.400000      1.000000
 -0.428571 -0.285714 -0.400000      1.000000
 -0.285714 -0.285714 -0.400000      1.000000
 -0.142857 -0.285714 -0.400000      1.000000
  0.000000 -0.142857 -0.400000      1.000000
  0.142857 -0.142857 -0.400000      1.000000
  0.285714 -0.142857 -0.400000      1.000000
  0.428571 -0.142857 -0.400000      1.000000
 -0.428571 -0.142857 -0.400000      1.000000
 -0.285714 -0.142857 -0.400000      1.000000
 -0.142857 -0.142857 -0.400000      1.000000
  0.000000  0.000000 -0.200000      1.000000
  0.142857  0.000000 -0.200000      1.000000
  0.285714  0.000000 -0.200000      1.000000
  0.428571  0.000000 -0.200000      1.000000
 -0.428571  0.000000 -0.200000      1.000000
 -0.285714  0.000000 -0.200000      1.000000
 -0.142857  0.000000 -0.200000      1.000000
  0.000000  0.142857 -0.200000      1.000000
  0.142857  0.142857 -0.200000      1.000000
  0.285714  0.142857 -0.200000      1.000000
  0.428571  0.142857 -0.200000      1.000000
 -0.428571  0.142857 -0.200000      1.000000
 -0.285714  0.142857 -0.200000      1.000000
 -0.142857  0.142857 -0.200000      1.000000
  0.000000  0.285714 -0.200000      1.000000
  0.142857  0.285714 -0.200000      1.000000
  0.285714  0.285714 -0.200000      1.000000
  0.428571  0.285714 -0.200000      1.000000
 -0.428571  0.285714 -0.200000      1.000000
 -0.285714  0.285714 -0.200000      1.000000
 -0.142857  0.285714 -0.200000      1.000000
  0.000000  0.428571 -0.200000      1.000000
  0.142857  0.428571 -0.200000      1.000000
  0.285714  0.428571 -0.200000      1.000000
  0.428571  0.428571 -0.200000      1.000000
 -0.428571  0.428571 -0.200000      1.000000
 -0.285714  0.428571 -0.200000      1.000000
 -0.142857  0.428571 -0.200000      1.000000
  0.000000 -0.428571 -0.200000      1.000000
  0.142857 -0.428571 -0.200000      1.000000
  0.285714 -0.428571 -0.200000      1.000000
  0.428571 -0.428571 -0.200000      1.000000
 -0.428571 -0.428571 -0.200000      1.000000
 -0.285714 -0.428571 -0.200000      1.000000
 -0.142857 -0.428571 -0.200000      1.000000
  0.000000 -0.285714 -0.200000      1.000000
  0.142857 -0.285714 -0.200000      1.000000
  0.285714 -0.285714 -0.200000      1.000000
  0.428571 -0.285714 -0.200000      1.000000
 -0.428571 -0.285714 -0.200000      1.000000
 -0.285714 -0.285714 -0.200000      1.000000
 -0.142857 -0.285714 -0.200000      1.000000
  0.000000 -0.142857 -0.200000      1.000000
  0.142857 -0.142857 -0.200000      1.000000
  0.285714 -0.142857 -0.200000      1.000000
  0.428571 -0.142857 -0.200000      1.000000
 -0.428571 -0.142857 -0.200000      1.000000
 -0.285714 -0.142857 -0.200000      1.000000
 -0.142857 -0.142857 -0.200000      1.000000
 
 Following cartesian coordinates:
            Coordinates               Weight
  0.000000  0.000000  0.000000      1.000000
  0.033222  0.000000  0.000000      1.000000
  0.066443  0.000000  0.000000      1.000000
  0.099665  0.000000  0.000000      1.000000
 -0.099665  0.000000  0.000000      1.000000
 -0.066443  0.000000  0.000000      1.000000
 -0.033222  0.000000  0.000000      1.000000
  0.000000  0.033222  0.000000      1.000000
  0.033222  0.033222  0.000000      1.000000
  0.066443  0.033222  0.000000      1.000000
  0.099665  0.033222  0.000000      1.000000
 -0.099665  0.033222  0.000000      1.000000
 -0.066443  0.033222  0.000000      1.000000
 -0.033222  0.033222  0.000000      1.000000
  0.000000  0.066443  0.000000      1.000000
  0.033222  0.066443  0.000000      1.000000
  0.066443  0.066443  0.000000      1.000000
  0.099665  0.066443  0.000000      1.000000
 -0.099665  0.066443  0.000000      1.000000
 -0.066443  0.066443  0.000000      1.000000
 -0.033222  0.066443  0.000000      1.000000
  0.000000  0.099665  0.000000      1.000000
  0.033222  0.099665  0.000000      1.000000
  0.066443  0.099665  0.000000      1.000000
  0.099665  0.099665  0.000000      1.000000
 -0.099665  0.099665  0.000000      1.000000
 -0.066443  0.099665  0.000000      1.000000
 -0.033222  0.099665  0.000000      1.000000
  0.000000 -0.099665  0.000000      1.000000
  0.033222 -0.099665  0.000000      1.000000
  0.066443 -0.099665  0.000000      1.000000
  0.099665 -0.099665  0.000000      1.000000
 -0.099665 -0.099665  0.000000      1.000000
 -0.066443 -0.099665  0.000000      1.000000
 -0.033222 -0.099665  0.000000      1.000000
  0.000000 -0.066443  0.000000      1.000000
  0.033222 -0.066443  0.000000      1.000000
  0.066443 -0.066443  0.000000      1.000000
  0.099665 -0.066443  0.000000      1.000000
 -0.099665 -0.066443  0.000000      1.000000
 -0.066443 -0.066443  0.000000      1.000000
 -0.033222 -0.066443  0.000000      1.000000
  0.000000 -0.033222  0.000000      1.000000
  0.033222 -0.033222  0.000000      1.000000
  0.066443 -0.033222  0.000000      1.000000
  0.099665 -0.033222  0.000000      1.000000
 -0.099665 -0.033222  0.000000      1.000000
 -0.066443 -0.033222  0.000000      1.000000
 -0.033222 -0.033222  0.000000      1.000000
  0.000000  0.000000  0.032542      1.000000
  0.033222  0.000000  0.032542      1.000000
  0.066443  0.000000  0.032542      1.000000
  0.099665  0.000000  0.032542      1.000000
 -0.099665  0.000000  0.032542      1.000000
 -0.066443  0.000000  0.032542      1.000000
 -0.033222  0.000000  0.032542      1.000000
  0.000000  0.033222  0.032542      1.000000
  0.033222  0.033222  0.032542      1.000000
  0.066443  0.033222  0.032542      1.000000
  0.099665  0.033222  0.032542      1.000000
 -0.099665  0.033222  0.032542      1.000000
 -0.066443  0.033222  0.032542      1.000000
 -0.033222  0.033222  0.032542      1.000000
  0.000000  0.066443  0.032542      1.000000
  0.033222  0.066443  0.032542      1.000000
  0.066443  0.066443  0.032542      1.000000
  0.099665  0.066443  0.032542      1.000000
 -0.099665  0.066443  0.032542      1.000000
 -0.066443  0.066443  0.032542      1.000000
 -0.033222  0.066443  0.032542      1.000000
  0.000000  0.099665  0.032542      1.000000
  0.033222  0.099665  0.032542      1.000000
  0.066443  0.099665  0.032542      1.000000
  0.099665  0.099665  0.032542      1.000000
 -0.099665  0.099665  0.032542      1.000000
 -0.066443  0.099665  0.032542      1.000000
 -0.033222  0.099665  0.032542      1.000000
  0.000000 -0.099665  0.032542      1.000000
  0.033222 -0.099665  0.032542      1.000000
  0.066443 -0.099665  0.032542      1.000000
  0.099665 -0.099665  0.032542      1.000000
 -0.099665 -0.099665  0.032542      1.000000
 -0.066443 -0.099665  0.032542      1.000000
 -0.033222 -0.099665  0.032542      1.000000
  0.000000 -0.066443  0.032542      1.000000
  0.033222 -0.066443  0.032542      1.000000
  0.066443 -0.066443  0.032542      1.000000
  0.099665 -0.066443  0.032542      1.000000
 -0.099665 -0.066443  0.032542      1.000000
 -0.066443 -0.066443  0.032542      1.000000
 -0.033222 -0.066443  0.032542      1.000000
  0.000000 -0.033222  0.032542      1.000000
  0.033222 -0.033222  0.032542      1.000000
  0.066443 -0.033222  0.032542      1.000000
  0.099665 -0.033222  0.032542      1.000000
 -0.099665 -0.033222  0.032542      1.000000
 -0.066443 -0.033222  0.032542      1.000000
 -0.033222 -0.033222  0.032542      1.000000
  0.000000  0.000000  0.065084      1.000000
  0.033222  0.000000  0.065084      1.000000
  0.066443  0.000000  0.065084      1.000000
  0.099665  0.000000  0.065084      1.000000
 -0.099665  0.000000  0.065084      1.000000
 -0.066443  0.000000  0.065084      1.000000
 -0.033222  0.000000  0.065084      1.000000
  0.000000  0.033222  0.065084      1.000000
  0.033222  0.033222  0.065084      1.000000
  0.066443  0.033222  0.065084      1.000000
  0.099665  0.033222  0.065084      1.000000
 -0.099665  0.033222  0.065084      1.000000
 -0.066443  0.033222  0.065084      1.000000
 -0.033222  0.033222  0.065084      1.000000
  0.000000  0.066443  0.065084      1.000000
  0.033222  0.066443  0.065084      1.000000
  0.066443  0.066443  0.065084      1.000000
  0.099665  0.066443  0.065084      1.000000
 -0.099665  0.066443  0.065084      1.000000
 -0.066443  0.066443  0.065084      1.000000
 -0.033222  0.066443  0.065084      1.000000
  0.000000  0.099665  0.065084      1.000000
  0.033222  0.099665  0.065084      1.000000
  0.066443  0.099665  0.065084      1.000000
  0.099665  0.099665  0.065084      1.000000
 -0.099665  0.099665  0.065084      1.000000
 -0.066443  0.099665  0.065084      1.000000
 -0.033222  0.099665  0.065084      1.000000
  0.000000 -0.099665  0.065084      1.000000
  0.033222 -0.099665  0.065084      1.000000
  0.066443 -0.099665  0.065084      1.000000
  0.099665 -0.099665  0.065084      1.000000
 -0.099665 -0.099665  0.065084      1.000000
 -0.066443 -0.099665  0.065084      1.000000
 -0.033222 -0.099665  0.065084      1.000000
  0.000000 -0.066443  0.065084      1.000000
  0.033222 -0.066443  0.065084      1.000000
  0.066443 -0.066443  0.065084      1.000000
  0.099665 -0.066443  0.065084      1.000000
 -0.099665 -0.066443  0.065084      1.000000
 -0.066443 -0.066443  0.065084      1.000000
 -0.033222 -0.066443  0.065084      1.000000
  0.000000 -0.033222  0.065084      1.000000
  0.033222 -0.033222  0.065084      1.000000
  0.066443 -0.033222  0.065084      1.000000
  0.099665 -0.033222  0.065084      1.000000
 -0.099665 -0.033222  0.065084      1.000000
 -0.066443 -0.033222  0.065084      1.000000
 -0.033222 -0.033222  0.065084      1.000000
  0.000000  0.000000 -0.065084      1.000000
  0.033222  0.000000 -0.065084      1.000000
  0.066443  0.000000 -0.065084      1.000000
  0.099665  0.000000 -0.065084      1.000000
 -0.099665  0.000000 -0.065084      1.000000
 -0.066443  0.000000 -0.065084      1.000000
 -0.033222  0.000000 -0.065084      1.000000
  0.000000  0.033222 -0.065084      1.000000
  0.033222  0.033222 -0.065084      1.000000
  0.066443  0.033222 -0.065084      1.000000
  0.099665  0.033222 -0.065084      1.000000
 -0.099665  0.033222 -0.065084      1.000000
 -0.066443  0.033222 -0.065084      1.000000
 -0.033222  0.033222 -0.065084      1.000000
  0.000000  0.066443 -0.065084      1.000000
  0.033222  0.066443 -0.065084      1.000000
  0.066443  0.066443 -0.065084      1.000000
  0.099665  0.066443 -0.065084      1.000000
 -0.099665  0.066443 -0.065084      1.000000
 -0.066443  0.066443 -0.065084      1.000000
 -0.033222  0.066443 -0.065084      1.000000
  0.000000  0.099665 -0.065084      1.000000
  0.033222  0.099665 -0.065084      1.000000
  0.066443  0.099665 -0.065084      1.000000
  0.099665  0.099665 -0.065084      1.000000
 -0.099665  0.099665 -0.065084      1.000000
 -0.066443  0.099665 -0.065084      1.000000
 -0.033222  0.099665 -0.065084      1.000000
  0.000000 -0.099665 -0.065084      1.000000
  0.033222 -0.099665 -0.065084      1.000000
  0.066443 -0.099665 -0.065084      1.000000
  0.099665 -0.099665 -0.065084      1.000000
 -0.099665 -0.099665 -0.065084      1.000000
 -0.066443 -0.099665 -0.065084      1.000000
 -0.033222 -0.099665 -0.065084      1.000000
  0.000000 -0.066443 -0.065084      1.000000
  0.033222 -0.066443 -0.065084      1.000000
  0.066443 -0.066443 -0.065084      1.000000
  0.099665 -0.066443 -0.065084      1.000000
 -0.099665 -0.066443 -0.065084      1.000000
 -0.066443 -0.066443 -0.065084      1.000000
 -0.033222 -0.066443 -0.065084      1.000000
  0.000000 -0.033222 -0.065084      1.000000
  0.033222 -0.033222 -0.065084      1.000000
  0.066443 -0.033222 -0.065084      1.000000
  0.099665 -0.033222 -0.065084      1.000000
 -0.099665 -0.033222 -0.065084      1.000000
 -0.066443 -0.033222 -0.065084      1.000000
 -0.033222 -0.033222 -0.065084      1.000000
  0.000000  0.000000 -0.032542      1.000000
  0.033222  0.000000 -0.032542      1.000000
  0.066443  0.000000 -0.032542      1.000000
  0.099665  0.000000 -0.032542      1.000000
 -0.099665  0.000000 -0.032542      1.000000
 -0.066443  0.000000 -0.032542      1.000000
 -0.033222  0.000000 -0.032542      1.000000
  0.000000  0.033222 -0.032542      1.000000
  0.033222  0.033222 -0.032542      1.000000
  0.066443  0.033222 -0.032542      1.000000
  0.099665  0.033222 -0.032542      1.000000
 -0.099665  0.033222 -0.032542      1.000000
 -0.066443  0.033222 -0.032542      1.000000
 -0.033222  0.033222 -0.032542      1.000000
  0.000000  0.066443 -0.032542      1.000000
  0.033222  0.066443 -0.032542      1.000000
  0.066443  0.066443 -0.032542      1.000000
  0.099665  0.066443 -0.032542      1.000000
 -0.099665  0.066443 -0.032542      1.000000
 -0.066443  0.066443 -0.032542      1.000000
 -0.033222  0.066443 -0.032542      1.000000
  0.000000  0.099665 -0.032542      1.000000
  0.033222  0.099665 -0.032542      1.000000
  0.066443  0.099665 -0.032542      1.000000
  0.099665  0.099665 -0.032542      1.000000
 -0.099665  0.099665 -0.032542      1.000000
 -0.066443  0.099665 -0.032542      1.000000
 -0.033222  0.099665 -0.032542      1.000000
  0.000000 -0.099665 -0.032542      1.000000
  0.033222 -0.099665 -0.032542      1.000000
  0.066443 -0.099665 -0.032542      1.000000
  0.099665 -0.099665 -0.032542      1.000000
 -0.099665 -0.099665 -0.032542      1.000000
 -0.066443 -0.099665 -0.032542      1.000000
 -0.033222 -0.099665 -0.032542      1.000000
  0.000000 -0.066443 -0.032542      1.000000
  0.033222 -0.066443 -0.032542      1.000000
  0.066443 -0.066443 -0.032542      1.000000
  0.099665 -0.066443 -0.032542      1.000000
 -0.099665 -0.066443 -0.032542      1.000000
 -0.066443 -0.066443 -0.032542      1.000000
 -0.033222 -0.066443 -0.032542      1.000000
  0.000000 -0.033222 -0.032542      1.000000
  0.033222 -0.033222 -0.032542      1.000000
  0.066443 -0.033222 -0.032542      1.000000
  0.099665 -0.033222 -0.032542      1.000000
 -0.099665 -0.033222 -0.032542      1.000000
 -0.066443 -0.033222 -0.032542      1.000000
 -0.033222 -0.033222 -0.032542      1.000000
 


--------------------------------------------------------------------------------------------------------




 Dimension of arrays:
   k-points           NKPTS =    245   k-points in BZ     NKDIM =    245   number of bands    NBANDS=     48
   number of dos      NEDOS =    301   number of ions     NIONS =      4
   non local maximal  LDIM  =      6   non local SUM 2l+1 LMDIM =     18
   total plane-waves  NPLWV =  49152
   max r-space proj   IRMAX =      1   max aug-charges    IRDMAX=  31281
   dimension x,y,z NGX =    32 NGY =   32 NGZ =   48
   dimension x,y,z NGXF=    64 NGYF=   64 NGZF=   96
   support grid    NGXF=    64 NGYF=   64 NGZF=   96
   ions per type =               2   1   1
   NGX,Y,Z   is equivalent  to a cutoff of  12.37, 12.37, 12.98 a.u.
   NGXF,Y,Z  is equivalent  to a cutoff of  24.74, 24.74, 25.97 a.u.

 SYSTEM =  Ga2BiAs                                 
 POSCAR =  Ga2 Bi1 As1                             

 Startparameter for this run:
   NWRITE =      2    write-flag & timer
   PREC   = accura    normal or accurate (medium, high low for compatibility)
   ISTART =      0    job   : 0-new  1-cont  2-samecut
   ICHARG =      2    charge: 1-file 2-atom 10-const
   ISPIN  =      1    spin polarized calculation?
   LNONCOLLINEAR =      T non collinear calculations
   LSORBIT =      T    spin-orbit coupling
   INIWAV =      1    electr: 0-lowe 1-rand  2-diag
   LASPH  =      F    aspherical Exc in radial PAW
   METAGGA=      F    non-selfconsistent MetaGGA calc.

 Electronic Relaxation 1
   ENCUT  =  500.0 eV  36.75 Ry    6.06 a.u.   7.84  7.84 11.21*2*pi/ulx,y,z
   ENINI  =  500.0     initial cutoff
   ENAUG  =  462.8 eV  augmentation charge cutoff
   NELM   =     60;   NELMIN=  2; NELMDL= -5     # of ELM steps 
   EDIFF  = 0.1E-05   stopping-criterion for ELM
   LREAL  =      F    real-space projection
   NLSPLINE    = F    spline interpolate recip. space projectors
   LCOMPAT=      F    compatible to vasp.4.4
   GGA_COMPAT  = T    GGA compatible to vasp.4.4-vasp.4.6
   LMAXPAW     = -100 max onsite density
   LMAXMIX     =    2 max onsite mixed and CHGCAR
   VOSKOWN=      0    Vosko Wilk Nusair interpolation
   ROPT   =    0.00000   0.00000   0.00000
 Ionic relaxation
   EDIFFG = -.1E-01   stopping-criterion for IOM
   NSW    =      0    number of steps for IOM
   NBLOCK =      1;   KBLOCK =      1    inner block; outer block 
   IBRION =     -1    ionic relax: 0-MD 1-quasi-New 2-CG
   NFREE  =      0    steps in history (QN), initial steepest desc. (CG)
   ISIF   =      2    stress and relaxation
   IWAVPR =     10    prediction:  0-non 1-charg 2-wave 3-comb
   ISYM   =      2    0-nonsym 1-usesym 2-fastsym
   LCORR  =      T    Harris-Foulkes like correction to forces

   POTIM  = 0.5000    time-step for ionic-motion
   TEIN   =    0.0    initial temperature
   TEBEG  =    0.0;   TEEND  =   0.0 temperature during run
   SMASS  =  -3.00    Nose mass-parameter (am)
   estimated Nose-frequenzy (Omega)   =  0.10E-29 period in steps =****** mass=  -0.423E-27a.u.
   SCALEE = 1.0000    scale energy and forces
   NPACO  =    256;   APACO  = 16.0  distance and # of slots for P.C.
   PSTRESS=    0.0 pullay stress

  Mass of Ions in am
   POMASS =  69.72208.98 74.92
  Ionic Valenz
   ZVAL   =   3.00 15.00  5.00
  Atomic Wigner-Seitz radii
   RWIGS  =  -1.00 -1.00 -1.00
  virtual crystal weights 
   VCA    =   1.00  1.00  1.00
   NELECT =      26.0000    total number of electrons
   NUPDOWN=      -1.0000    fix difference up-down

 DOS related values:
   EMIN   =  10.00;   EMAX   =-10.00  energy-range for DOS
   EFERMI =   0.00
   ISMEAR =     1;   SIGMA  =   0.20  broadening in eV -4-tet -1-fermi 0-gaus

 Electronic relaxation 2 (details)
   IALGO  =     38    algorithm
   LDIAG  =      T    sub-space diagonalisation (order eigenvalues)
   LSUBROT=      F    optimize rotation matrix (better conditioning)
   TURBO    =      0    0=normal 1=particle mesh
   IRESTART =      0    0=no restart 2=restart with 2 vectors
   NREBOOT  =      0    no. of reboots
   NMIN     =      0    reboot dimension
   EREF     =   0.00    reference energy to select bands
   IMIX   =      4    mixing-type and parameters
     AMIX     =   0.40;   BMIX     =  1.00
     AMIX_MAG =   1.60;   BMIX_MAG =  1.00
     AMIN     =   0.10
     WC   =   100.;   INIMIX=   1;  MIXPRE=   1;  MAXMIX= -45

 Intra band minimization:
   WEIMIN = 0.0000     energy-eigenvalue tresh-hold
   EBREAK =  0.52E-08  absolut break condition
   DEPER  =   0.30     relativ break condition  

   TIME   =   0.40     timestep for ELM

  volume/ion in A,a.u.               =      28.41       191.73
  Fermi-wavevector in a.u.,A,eV,Ry     =   1.001267  1.892120 13.640326  1.002536
  Thomas-Fermi vector in A             =   2.133678
 
 Write flags
   LWAVE        =      T    write WAVECAR
   LDOWNSAMPLE  =      F    k-point downsampling of WAVECAR
   LCHARG       =      T    write CHGCAR
   LVTOT        =      F    write LOCPOT, total local potential
   LVHAR        =      F    write LOCPOT, Hartree potential only
   LELF         =      F    write electronic localiz. function (ELF)
   LORBIT       =      0    0 simple, 1 ext, 2 COOP (PROOUT), +10 PAW based schemes


 Dipole corrections
   LMONO  =      F    monopole corrections only (constant potential shift)
   LDIPOL =      F    correct potential (dipole corrections)
   IDIPOL =      0    1-x, 2-y, 3-z, 4-all directions 
   EPSILON=  1.0000000 bulk dielectric constant

 Exchange correlation treatment:
   GGA     =    --    GGA type
   LEXCH   =     8    internal setting for exchange type
   VOSKOWN=      0    Vosko Wilk Nusair interpolation
   LHFCALC =     F    Hartree Fock is set to
   LHFONE  =     F    Hartree Fock one center treatment
   AEXX    =    0.0000 exact exchange contribution

 Linear response parameters
   LEPSILON=     F    determine dielectric tensor
   LRPA    =     F    only Hartree local field effects (RPA)
   LNABLA  =     F    use nabla operator in PAW spheres
   LVEL    =     F    velocity operator in full k-point grid
   LINTERFAST=   F  fast interpolation
   KINTER  =     0    interpolate to denser k-point grid
   CSHIFT  =0.1000    complex shift for real part using Kramers Kronig
   OMEGAMAX=  -1.0    maximum frequency
   DEG_THRESHOLD= 0.2000000E-02 threshold for treating states as degnerate
   RTIME   =   -0.100 relaxation time in fs
  (WPLASMAI=    0.000 imaginary part of plasma frequency in eV, 0.658/RTIME)
   DFIELD  = 0.0000000 0.0000000 0.0000000 field for delta impulse in time
 
 Orbital magnetization related:
   ORBITALMAG=     F  switch on orbital magnetization
   LCHIMAG   =     F  perturbation theory with respect to B field
   DQ        =  0.001000  dq finite difference perturbation B field
   LLRAUG    =     F  two centre corrections for induced B field



--------------------------------------------------------------------------------------------------------


 Static calculation
 charge density and potential will be updated during run
 non collinear spin polarized calculation
 Variant of blocked Davidson
 Davidson routine will perform the subspace rotation
 perform sub-space diagonalisation
    after iterative eigenvector-optimisation
 modified Broyden-mixing scheme, WC =      100.0
 initial mixing is a Kerker type mixing with AMIX =  0.4000 and BMIX =      1.0000
 Hartree-type preconditioning will be used
 using additional bands           35
 reciprocal scheme for non local part
 use partial core corrections
 calculate Harris-corrections to forces 
   (improved forces if not selfconsistent)
 use gradient corrections 
 use of overlap-Matrix (Vanderbilt PP)
 Methfessel and Paxton  Order N= 1 SIGMA  =   0.20


--------------------------------------------------------------------------------------------------------


  energy-cutoff  :      500.00
  volume of cell :      113.64
      direct lattice vectors                 reciprocal lattice vectors
     4.300140858  0.000000000  0.000000000     0.232550522  0.000000000  0.000000000
     0.000000000  4.300140858  0.000000000     0.000000000  0.232550522  0.000000000
     0.000000000  0.000000000  6.145861149     0.000000000  0.000000000  0.162711128

  length of vectors
     4.300140858  4.300140858  6.145861149     0.232550522  0.232550522  0.162711128


 
 k-points in units of 2pi/SCALE and weight: MP                                      
   0.00000000  0.00000000  0.00000000       0.004
   0.03322150  0.00000000  0.00000000       0.004
   0.06644301  0.00000000  0.00000000       0.004
   0.09966451  0.00000000  0.00000000       0.004
  -0.09966451  0.00000000  0.00000000       0.004
  -0.06644301  0.00000000  0.00000000       0.004
  -0.03322150  0.00000000  0.00000000       0.004
   0.00000000  0.03322150  0.00000000       0.004
   0.03322150  0.03322150  0.00000000       0.004
   0.06644301  0.03322150  0.00000000       0.004
   0.09966451  0.03322150  0.00000000       0.004
  -0.09966451  0.03322150  0.00000000       0.004
  -0.06644301  0.03322150  0.00000000       0.004
  -0.03322150  0.03322150  0.00000000       0.004
   0.00000000  0.06644301  0.00000000       0.004
   0.03322150  0.06644301  0.00000000       0.004
   0.06644301  0.06644301  0.00000000       0.004
   0.09966451  0.06644301  0.00000000       0.004
  -0.09966451  0.06644301  0.00000000       0.004
  -0.06644301  0.06644301  0.00000000       0.004
  -0.03322150  0.06644301  0.00000000       0.004
   0.00000000  0.09966451  0.00000000       0.004
   0.03322150  0.09966451  0.00000000       0.004
   0.06644301  0.09966451  0.00000000       0.004
   0.09966451  0.09966451  0.00000000       0.004
  -0.09966451  0.09966451  0.00000000       0.004
  -0.06644301  0.09966451  0.00000000       0.004
  -0.03322150  0.09966451  0.00000000       0.004
   0.00000000 -0.09966451  0.00000000       0.004
   0.03322150 -0.09966451  0.00000000       0.004
   0.06644301 -0.09966451  0.00000000       0.004
   0.09966451 -0.09966451  0.00000000       0.004
  -0.09966451 -0.09966451  0.00000000       0.004
  -0.06644301 -0.09966451  0.00000000       0.004
  -0.03322150 -0.09966451  0.00000000       0.004
   0.00000000 -0.06644301  0.00000000       0.004
   0.03322150 -0.06644301  0.00000000       0.004
   0.06644301 -0.06644301  0.00000000       0.004
   0.09966451 -0.06644301  0.00000000       0.004
  -0.09966451 -0.06644301  0.00000000       0.004
  -0.06644301 -0.06644301  0.00000000       0.004
  -0.03322150 -0.06644301  0.00000000       0.004
   0.00000000 -0.03322150  0.00000000       0.004
   0.03322150 -0.03322150  0.00000000       0.004
   0.06644301 -0.03322150  0.00000000       0.004
   0.09966451 -0.03322150  0.00000000       0.004
  -0.09966451 -0.03322150  0.00000000       0.004
  -0.06644301 -0.03322150  0.00000000       0.004
  -0.03322150 -0.03322150  0.00000000       0.004
   0.00000000  0.00000000  0.03254223       0.004
   0.03322150  0.00000000  0.03254223       0.004
   0.06644301  0.00000000  0.03254223       0.004
   0.09966451  0.00000000  0.03254223       0.004
  -0.09966451  0.00000000  0.03254223       0.004
  -0.06644301  0.00000000  0.03254223       0.004
  -0.03322150  0.00000000  0.03254223       0.004
   0.00000000  0.03322150  0.03254223       0.004
   0.03322150  0.03322150  0.03254223       0.004
   0.06644301  0.03322150  0.03254223       0.004
   0.09966451  0.03322150  0.03254223       0.004
  -0.09966451  0.03322150  0.03254223       0.004
  -0.06644301  0.03322150  0.03254223       0.004
  -0.03322150  0.03322150  0.03254223       0.004
   0.00000000  0.06644301  0.03254223       0.004
   0.03322150  0.06644301  0.03254223       0.004
   0.06644301  0.06644301  0.03254223       0.004
   0.09966451  0.06644301  0.03254223       0.004
  -0.09966451  0.06644301  0.03254223       0.004
  -0.06644301  0.06644301  0.03254223       0.004
  -0.03322150  0.06644301  0.03254223       0.004
   0.00000000  0.09966451  0.03254223       0.004
   0.03322150  0.09966451  0.03254223       0.004
   0.06644301  0.09966451  0.03254223       0.004
   0.09966451  0.09966451  0.03254223       0.004
  -0.09966451  0.09966451  0.03254223       0.004
  -0.06644301  0.09966451  0.03254223       0.004
  -0.03322150  0.09966451  0.03254223       0.004
   0.00000000 -0.09966451  0.03254223       0.004
   0.03322150 -0.09966451  0.03254223       0.004
   0.06644301 -0.09966451  0.03254223       0.004
   0.09966451 -0.09966451  0.03254223       0.004
  -0.09966451 -0.09966451  0.03254223       0.004
  -0.06644301 -0.09966451  0.03254223       0.004
  -0.03322150 -0.09966451  0.03254223       0.004
   0.00000000 -0.06644301  0.03254223       0.004
   0.03322150 -0.06644301  0.03254223       0.004
   0.06644301 -0.06644301  0.03254223       0.004
   0.09966451 -0.06644301  0.03254223       0.004
  -0.09966451 -0.06644301  0.03254223       0.004
  -0.06644301 -0.06644301  0.03254223       0.004
  -0.03322150 -0.06644301  0.03254223       0.004
   0.00000000 -0.03322150  0.03254223       0.004
   0.03322150 -0.03322150  0.03254223       0.004
   0.06644301 -0.03322150  0.03254223       0.004
   0.09966451 -0.03322150  0.03254223       0.004
  -0.09966451 -0.03322150  0.03254223       0.004
  -0.06644301 -0.03322150  0.03254223       0.004
  -0.03322150 -0.03322150  0.03254223       0.004
   0.00000000  0.00000000  0.06508445       0.004
   0.03322150  0.00000000  0.06508445       0.004
   0.06644301  0.00000000  0.06508445       0.004
   0.09966451  0.00000000  0.06508445       0.004
  -0.09966451  0.00000000  0.06508445       0.004
  -0.06644301  0.00000000  0.06508445       0.004
  -0.03322150  0.00000000  0.06508445       0.004
   0.00000000  0.03322150  0.06508445       0.004
   0.03322150  0.03322150  0.06508445       0.004
   0.06644301  0.03322150  0.06508445       0.004
   0.09966451  0.03322150  0.06508445       0.004
  -0.09966451  0.03322150  0.06508445       0.004
  -0.06644301  0.03322150  0.06508445       0.004
  -0.03322150  0.03322150  0.06508445       0.004
   0.00000000  0.06644301  0.06508445       0.004
   0.03322150  0.06644301  0.06508445       0.004
   0.06644301  0.06644301  0.06508445       0.004
   0.09966451  0.06644301  0.06508445       0.004
  -0.09966451  0.06644301  0.06508445       0.004
  -0.06644301  0.06644301  0.06508445       0.004
  -0.03322150  0.06644301  0.06508445       0.004
   0.00000000  0.09966451  0.06508445       0.004
   0.03322150  0.09966451  0.06508445       0.004
   0.06644301  0.09966451  0.06508445       0.004
   0.09966451  0.09966451  0.06508445       0.004
  -0.09966451  0.09966451  0.06508445       0.004
  -0.06644301  0.09966451  0.06508445       0.004
  -0.03322150  0.09966451  0.06508445       0.004
   0.00000000 -0.09966451  0.06508445       0.004
   0.03322150 -0.09966451  0.06508445       0.004
   0.06644301 -0.09966451  0.06508445       0.004
   0.09966451 -0.09966451  0.06508445       0.004
  -0.09966451 -0.09966451  0.06508445       0.004
  -0.06644301 -0.09966451  0.06508445       0.004
  -0.03322150 -0.09966451  0.06508445       0.004
   0.00000000 -0.06644301  0.06508445       0.004
   0.03322150 -0.06644301  0.06508445       0.004
   0.06644301 -0.06644301  0.06508445       0.004
   0.09966451 -0.06644301  0.06508445       0.004
  -0.09966451 -0.06644301  0.06508445       0.004
  -0.06644301 -0.06644301  0.06508445       0.004
  -0.03322150 -0.06644301  0.06508445       0.004
   0.00000000 -0.03322150  0.06508445       0.004
   0.03322150 -0.03322150  0.06508445       0.004
   0.06644301 -0.03322150  0.06508445       0.004
   0.09966451 -0.03322150  0.06508445       0.004
  -0.09966451 -0.03322150  0.06508445       0.004
  -0.06644301 -0.03322150  0.06508445       0.004
  -0.03322150 -0.03322150  0.06508445       0.004
   0.00000000  0.00000000 -0.06508445       0.004
   0.03322150  0.00000000 -0.06508445       0.004
   0.06644301  0.00000000 -0.06508445       0.004
   0.09966451  0.00000000 -0.06508445       0.004
  -0.09966451  0.00000000 -0.06508445       0.004
  -0.06644301  0.00000000 -0.06508445       0.004
  -0.03322150  0.00000000 -0.06508445       0.004
   0.00000000  0.03322150 -0.06508445       0.004
   0.03322150  0.03322150 -0.06508445       0.004
   0.06644301  0.03322150 -0.06508445       0.004
   0.09966451  0.03322150 -0.06508445       0.004
  -0.09966451  0.03322150 -0.06508445       0.004
  -0.06644301  0.03322150 -0.06508445       0.004
  -0.03322150  0.03322150 -0.06508445       0.004
   0.00000000  0.06644301 -0.06508445       0.004
   0.03322150  0.06644301 -0.06508445       0.004
   0.06644301  0.06644301 -0.06508445       0.004
   0.09966451  0.06644301 -0.06508445       0.004
  -0.09966451  0.06644301 -0.06508445       0.004
  -0.06644301  0.06644301 -0.06508445       0.004
  -0.03322150  0.06644301 -0.06508445       0.004
   0.00000000  0.09966451 -0.06508445       0.004
   0.03322150  0.09966451 -0.06508445       0.004
   0.06644301  0.09966451 -0.06508445       0.004
   0.09966451  0.09966451 -0.06508445       0.004
  -0.09966451  0.09966451 -0.06508445       0.004
  -0.06644301  0.09966451 -0.06508445       0.004
  -0.03322150  0.09966451 -0.06508445       0.004
   0.00000000 -0.09966451 -0.06508445       0.004
   0.03322150 -0.09966451 -0.06508445       0.004
   0.06644301 -0.09966451 -0.06508445       0.004
   0.09966451 -0.09966451 -0.06508445       0.004
  -0.09966451 -0.09966451 -0.06508445       0.004
  -0.06644301 -0.09966451 -0.06508445       0.004
  -0.03322150 -0.09966451 -0.06508445       0.004
   0.00000000 -0.06644301 -0.06508445       0.004
   0.03322150 -0.06644301 -0.06508445       0.004
   0.06644301 -0.06644301 -0.06508445       0.004
   0.09966451 -0.06644301 -0.06508445       0.004
  -0.09966451 -0.06644301 -0.06508445       0.004
  -0.06644301 -0.06644301 -0.06508445       0.004
  -0.03322150 -0.06644301 -0.06508445       0.004
   0.00000000 -0.03322150 -0.06508445       0.004
   0.03322150 -0.03322150 -0.06508445       0.004
   0.06644301 -0.03322150 -0.06508445       0.004
   0.09966451 -0.03322150 -0.06508445       0.004
  -0.09966451 -0.03322150 -0.06508445       0.004
  -0.06644301 -0.03322150 -0.06508445       0.004
  -0.03322150 -0.03322150 -0.06508445       0.004
   0.00000000  0.00000000 -0.03254223       0.004
   0.03322150  0.00000000 -0.03254223       0.004
   0.06644301  0.00000000 -0.03254223       0.004
   0.09966451  0.00000000 -0.03254223       0.004
  -0.09966451  0.00000000 -0.03254223       0.004
  -0.06644301  0.00000000 -0.03254223       0.004
  -0.03322150  0.00000000 -0.03254223       0.004
   0.00000000  0.03322150 -0.03254223       0.004
   0.03322150  0.03322150 -0.03254223       0.004
   0.06644301  0.03322150 -0.03254223       0.004
   0.09966451  0.03322150 -0.03254223       0.004
  -0.09966451  0.03322150 -0.03254223       0.004
  -0.06644301  0.03322150 -0.03254223       0.004
  -0.03322150  0.03322150 -0.03254223       0.004
   0.00000000  0.06644301 -0.03254223       0.004
   0.03322150  0.06644301 -0.03254223       0.004
   0.06644301  0.06644301 -0.03254223       0.004
   0.09966451  0.06644301 -0.03254223       0.004
  -0.09966451  0.06644301 -0.03254223       0.004
  -0.06644301  0.06644301 -0.03254223       0.004
  -0.03322150  0.06644301 -0.03254223       0.004
   0.00000000  0.09966451 -0.03254223       0.004
   0.03322150  0.09966451 -0.03254223       0.004
   0.06644301  0.09966451 -0.03254223       0.004
   0.09966451  0.09966451 -0.03254223       0.004
  -0.09966451  0.09966451 -0.03254223       0.004
  -0.06644301  0.09966451 -0.03254223       0.004
  -0.03322150  0.09966451 -0.03254223       0.004
   0.00000000 -0.09966451 -0.03254223       0.004
   0.03322150 -0.09966451 -0.03254223       0.004
   0.06644301 -0.09966451 -0.03254223       0.004
   0.09966451 -0.09966451 -0.03254223       0.004
  -0.09966451 -0.09966451 -0.03254223       0.004
  -0.06644301 -0.09966451 -0.03254223       0.004
  -0.03322150 -0.09966451 -0.03254223       0.004
   0.00000000 -0.06644301 -0.03254223       0.004
   0.03322150 -0.06644301 -0.03254223       0.004
   0.06644301 -0.06644301 -0.03254223       0.004
   0.09966451 -0.06644301 -0.03254223       0.004
  -0.09966451 -0.06644301 -0.03254223       0.004
  -0.06644301 -0.06644301 -0.03254223       0.004
  -0.03322150 -0.06644301 -0.03254223       0.004
   0.00000000 -0.03322150 -0.03254223       0.004
   0.03322150 -0.03322150 -0.03254223       0.004
   0.06644301 -0.03322150 -0.03254223       0.004
   0.09966451 -0.03322150 -0.03254223       0.004
  -0.09966451 -0.03322150 -0.03254223       0.004
  -0.06644301 -0.03322150 -0.03254223       0.004
  -0.03322150 -0.03322150 -0.03254223       0.004
 
 k-points in reciprocal lattice and weights: MP                                      
   0.00000000  0.00000000  0.00000000       0.004
   0.14285714  0.00000000  0.00000000       0.004
   0.28571429  0.00000000  0.00000000       0.004
   0.42857143  0.00000000  0.00000000       0.004
  -0.42857143  0.00000000  0.00000000       0.004
  -0.28571429  0.00000000  0.00000000       0.004
  -0.14285714  0.00000000  0.00000000       0.004
   0.00000000  0.14285714  0.00000000       0.004
   0.14285714  0.14285714  0.00000000       0.004
   0.28571429  0.14285714  0.00000000       0.004
   0.42857143  0.14285714  0.00000000       0.004
  -0.42857143  0.14285714  0.00000000       0.004
  -0.28571429  0.14285714  0.00000000       0.004
  -0.14285714  0.14285714  0.00000000       0.004
   0.00000000  0.28571429  0.00000000       0.004
   0.14285714  0.28571429  0.00000000       0.004
   0.28571429  0.28571429  0.00000000       0.004
   0.42857143  0.28571429  0.00000000       0.004
  -0.42857143  0.28571429  0.00000000       0.004
  -0.28571429  0.28571429  0.00000000       0.004
  -0.14285714  0.28571429  0.00000000       0.004
   0.00000000  0.42857143  0.00000000       0.004
   0.14285714  0.42857143  0.00000000       0.004
   0.28571429  0.42857143  0.00000000       0.004
   0.42857143  0.42857143  0.00000000       0.004
  -0.42857143  0.42857143  0.00000000       0.004
  -0.28571429  0.42857143  0.00000000       0.004
  -0.14285714  0.42857143  0.00000000       0.004
   0.00000000 -0.42857143  0.00000000       0.004
   0.14285714 -0.42857143  0.00000000       0.004
   0.28571429 -0.42857143  0.00000000       0.004
   0.42857143 -0.42857143  0.00000000       0.004
  -0.42857143 -0.42857143  0.00000000       0.004
  -0.28571429 -0.42857143  0.00000000       0.004
  -0.14285714 -0.42857143  0.00000000       0.004
   0.00000000 -0.28571429  0.00000000       0.004
   0.14285714 -0.28571429  0.00000000       0.004
   0.28571429 -0.28571429  0.00000000       0.004
   0.42857143 -0.28571429  0.00000000       0.004
  -0.42857143 -0.28571429  0.00000000       0.004
  -0.28571429 -0.28571429  0.00000000       0.004
  -0.14285714 -0.28571429  0.00000000       0.004
   0.00000000 -0.14285714  0.00000000       0.004
   0.14285714 -0.14285714  0.00000000       0.004
   0.28571429 -0.14285714  0.00000000       0.004
   0.42857143 -0.14285714  0.00000000       0.004
  -0.42857143 -0.14285714  0.00000000       0.004
  -0.28571429 -0.14285714  0.00000000       0.004
  -0.14285714 -0.14285714  0.00000000       0.004
   0.00000000  0.00000000  0.20000000       0.004
   0.14285714  0.00000000  0.20000000       0.004
   0.28571429  0.00000000  0.20000000       0.004
   0.42857143  0.00000000  0.20000000       0.004
  -0.42857143  0.00000000  0.20000000       0.004
  -0.28571429  0.00000000  0.20000000       0.004
  -0.14285714  0.00000000  0.20000000       0.004
   0.00000000  0.14285714  0.20000000       0.004
   0.14285714  0.14285714  0.20000000       0.004
   0.28571429  0.14285714  0.20000000       0.004
   0.42857143  0.14285714  0.20000000       0.004
  -0.42857143  0.14285714  0.20000000       0.004
  -0.28571429  0.14285714  0.20000000       0.004
  -0.14285714  0.14285714  0.20000000       0.004
   0.00000000  0.28571429  0.20000000       0.004
   0.14285714  0.28571429  0.20000000       0.004
   0.28571429  0.28571429  0.20000000       0.004
   0.42857143  0.28571429  0.20000000       0.004
  -0.42857143  0.28571429  0.20000000       0.004
  -0.28571429  0.28571429  0.20000000       0.004
  -0.14285714  0.28571429  0.20000000       0.004
   0.00000000  0.42857143  0.20000000       0.004
   0.14285714  0.42857143  0.20000000       0.004
   0.28571429  0.42857143  0.20000000       0.004
   0.42857143  0.42857143  0.20000000       0.004
  -0.42857143  0.42857143  0.20000000       0.004
  -0.28571429  0.42857143  0.20000000       0.004
  -0.14285714  0.42857143  0.20000000       0.004
   0.00000000 -0.42857143  0.20000000       0.004
   0.14285714 -0.42857143  0.20000000       0.004
   0.28571429 -0.42857143  0.20000000       0.004
   0.42857143 -0.42857143  0.20000000       0.004
  -0.42857143 -0.42857143  0.20000000       0.004
  -0.28571429 -0.42857143  0.20000000       0.004
  -0.14285714 -0.42857143  0.20000000       0.004
   0.00000000 -0.28571429  0.20000000       0.004
   0.14285714 -0.28571429  0.20000000       0.004
   0.28571429 -0.28571429  0.20000000       0.004
   0.42857143 -0.28571429  0.20000000       0.004
  -0.42857143 -0.28571429  0.20000000       0.004
  -0.28571429 -0.28571429  0.20000000       0.004
  -0.14285714 -0.28571429  0.20000000       0.004
   0.00000000 -0.14285714  0.20000000       0.004
   0.14285714 -0.14285714  0.20000000       0.004
   0.28571429 -0.14285714  0.20000000       0.004
   0.42857143 -0.14285714  0.20000000       0.004
  -0.42857143 -0.14285714  0.20000000       0.004
  -0.28571429 -0.14285714  0.20000000       0.004
  -0.14285714 -0.14285714  0.20000000       0.004
   0.00000000  0.00000000  0.40000000       0.004
   0.14285714  0.00000000  0.40000000       0.004
   0.28571429  0.00000000  0.40000000       0.004
   0.42857143  0.00000000  0.40000000       0.004
  -0.42857143  0.00000000  0.40000000       0.004
  -0.28571429  0.00000000  0.40000000       0.004
  -0.14285714  0.00000000  0.40000000       0.004
   0.00000000  0.14285714  0.40000000       0.004
   0.14285714  0.14285714  0.40000000       0.004
   0.28571429  0.14285714  0.40000000       0.004
   0.42857143  0.14285714  0.40000000       0.004
  -0.42857143  0.14285714  0.40000000       0.004
  -0.28571429  0.14285714  0.40000000       0.004
  -0.14285714  0.14285714  0.40000000       0.004
   0.00000000  0.28571429  0.40000000       0.004
   0.14285714  0.28571429  0.40000000       0.004
   0.28571429  0.28571429  0.40000000       0.004
   0.42857143  0.28571429  0.40000000       0.004
  -0.42857143  0.28571429  0.40000000       0.004
  -0.28571429  0.28571429  0.40000000       0.004
  -0.14285714  0.28571429  0.40000000       0.004
   0.00000000  0.42857143  0.40000000       0.004
   0.14285714  0.42857143  0.40000000       0.004
   0.28571429  0.42857143  0.40000000       0.004
   0.42857143  0.42857143  0.40000000       0.004
  -0.42857143  0.42857143  0.40000000       0.004
  -0.28571429  0.42857143  0.40000000       0.004
  -0.14285714  0.42857143  0.40000000       0.004
   0.00000000 -0.42857143  0.40000000       0.004
   0.14285714 -0.42857143  0.40000000       0.004
   0.28571429 -0.42857143  0.40000000       0.004
   0.42857143 -0.42857143  0.40000000       0.004
  -0.42857143 -0.42857143  0.40000000       0.004
  -0.28571429 -0.42857143  0.40000000       0.004
  -0.14285714 -0.42857143  0.40000000       0.004
   0.00000000 -0.28571429  0.40000000       0.004
   0.14285714 -0.28571429  0.40000000       0.004
   0.28571429 -0.28571429  0.40000000       0.004
   0.42857143 -0.28571429  0.40000000       0.004
  -0.42857143 -0.28571429  0.40000000       0.004
  -0.28571429 -0.28571429  0.40000000       0.004
  -0.14285714 -0.28571429  0.40000000       0.004
   0.00000000 -0.14285714  0.40000000       0.004
   0.14285714 -0.14285714  0.40000000       0.004
   0.28571429 -0.14285714  0.40000000       0.004
   0.42857143 -0.14285714  0.40000000       0.004
  -0.42857143 -0.14285714  0.40000000       0.004
  -0.28571429 -0.14285714  0.40000000       0.004
  -0.14285714 -0.14285714  0.40000000       0.004
   0.00000000  0.00000000 -0.40000000       0.004
   0.14285714  0.00000000 -0.40000000       0.004
   0.28571429  0.00000000 -0.40000000       0.004
   0.42857143  0.00000000 -0.40000000       0.004
  -0.42857143  0.00000000 -0.40000000       0.004
  -0.28571429  0.00000000 -0.40000000       0.004
  -0.14285714  0.00000000 -0.40000000       0.004
   0.00000000  0.14285714 -0.40000000       0.004
   0.14285714  0.14285714 -0.40000000       0.004
   0.28571429  0.14285714 -0.40000000       0.004
   0.42857143  0.14285714 -0.40000000       0.004
  -0.42857143  0.14285714 -0.40000000       0.004
  -0.28571429  0.14285714 -0.40000000       0.004
  -0.14285714  0.14285714 -0.40000000       0.004
   0.00000000  0.28571429 -0.40000000       0.004
   0.14285714  0.28571429 -0.40000000       0.004
   0.28571429  0.28571429 -0.40000000       0.004
   0.42857143  0.28571429 -0.40000000       0.004
  -0.42857143  0.28571429 -0.40000000       0.004
  -0.28571429  0.28571429 -0.40000000       0.004
  -0.14285714  0.28571429 -0.40000000       0.004
   0.00000000  0.42857143 -0.40000000       0.004
   0.14285714  0.42857143 -0.40000000       0.004
   0.28571429  0.42857143 -0.40000000       0.004
   0.42857143  0.42857143 -0.40000000       0.004
  -0.42857143  0.42857143 -0.40000000       0.004
  -0.28571429  0.42857143 -0.40000000       0.004
  -0.14285714  0.42857143 -0.40000000       0.004
   0.00000000 -0.42857143 -0.40000000       0.004
   0.14285714 -0.42857143 -0.40000000       0.004
   0.28571429 -0.42857143 -0.40000000       0.004
   0.42857143 -0.42857143 -0.40000000       0.004
  -0.42857143 -0.42857143 -0.40000000       0.004
  -0.28571429 -0.42857143 -0.40000000       0.004
  -0.14285714 -0.42857143 -0.40000000       0.004
   0.00000000 -0.28571429 -0.40000000       0.004
   0.14285714 -0.28571429 -0.40000000       0.004
   0.28571429 -0.28571429 -0.40000000       0.004
   0.42857143 -0.28571429 -0.40000000       0.004
  -0.42857143 -0.28571429 -0.40000000       0.004
  -0.28571429 -0.28571429 -0.40000000       0.004
  -0.14285714 -0.28571429 -0.40000000       0.004
   0.00000000 -0.14285714 -0.40000000       0.004
   0.14285714 -0.14285714 -0.40000000       0.004
   0.28571429 -0.14285714 -0.40000000       0.004
   0.42857143 -0.14285714 -0.40000000       0.004
  -0.42857143 -0.14285714 -0.40000000       0.004
  -0.28571429 -0.14285714 -0.40000000       0.004
  -0.14285714 -0.14285714 -0.40000000       0.004
   0.00000000  0.00000000 -0.20000000       0.004
   0.14285714  0.00000000 -0.20000000       0.004
   0.28571429  0.00000000 -0.20000000       0.004
   0.42857143  0.00000000 -0.20000000       0.004
  -0.42857143  0.00000000 -0.20000000       0.004
  -0.28571429  0.00000000 -0.20000000       0.004
  -0.14285714  0.00000000 -0.20000000       0.004
   0.00000000  0.14285714 -0.20000000       0.004
   0.14285714  0.14285714 -0.20000000       0.004
   0.28571429  0.14285714 -0.20000000       0.004
   0.42857143  0.14285714 -0.20000000       0.004
  -0.42857143  0.14285714 -0.20000000       0.004
  -0.28571429  0.14285714 -0.20000000       0.004
  -0.14285714  0.14285714 -0.20000000       0.004
   0.00000000  0.28571429 -0.20000000       0.004
   0.14285714  0.28571429 -0.20000000       0.004
   0.28571429  0.28571429 -0.20000000       0.004
   0.42857143  0.28571429 -0.20000000       0.004
  -0.42857143  0.28571429 -0.20000000       0.004
  -0.28571429  0.28571429 -0.20000000       0.004
  -0.14285714  0.28571429 -0.20000000       0.004
   0.00000000  0.42857143 -0.20000000       0.004
   0.14285714  0.42857143 -0.20000000       0.004
   0.28571429  0.42857143 -0.20000000       0.004
   0.42857143  0.42857143 -0.20000000       0.004
  -0.42857143  0.42857143 -0.20000000       0.004
  -0.28571429  0.42857143 -0.20000000       0.004
  -0.14285714  0.42857143 -0.20000000       0.004
   0.00000000 -0.42857143 -0.20000000       0.004
   0.14285714 -0.42857143 -0.20000000       0.004
   0.28571429 -0.42857143 -0.20000000       0.004
   0.42857143 -0.42857143 -0.20000000       0.004
  -0.42857143 -0.42857143 -0.20000000       0.004
  -0.28571429 -0.42857143 -0.20000000       0.004
  -0.14285714 -0.42857143 -0.20000000       0.004
   0.00000000 -0.28571429 -0.20000000       0.004
   0.14285714 -0.28571429 -0.20000000       0.004
   0.28571429 -0.28571429 -0.20000000       0.004
   0.42857143 -0.28571429 -0.20000000       0.004
  -0.42857143 -0.28571429 -0.20000000       0.004
  -0.28571429 -0.28571429 -0.20000000       0.004
  -0.14285714 -0.28571429 -0.20000000       0.004
   0.00000000 -0.14285714 -0.20000000       0.004
   0.14285714 -0.14285714 -0.20000000       0.004
   0.28571429 -0.14285714 -0.20000000       0.004
   0.42857143 -0.14285714 -0.20000000       0.004
  -0.42857143 -0.14285714 -0.20000000       0.004
  -0.28571429 -0.14285714 -0.20000000       0.004
  -0.14285714 -0.14285714 -0.20000000       0.004
 
 position of ions in fractional coordinates (direct lattice) 
   0.50000000  0.00000000  0.72573602
   0.00000000  0.50000000  0.27426400
   0.00000000  0.00000000  0.00000000
   0.50000000  0.50000000  0.50000000
 
 position of ions in cartesian coordinates  (Angst):
   2.15007043  0.00000000  4.46027279
   0.00000000  2.15007043  1.68558848
   0.00000000  0.00000000  0.00000000
   2.15007043  2.15007043  3.07293057
 
 Euler angles ALPHA=     0.0000000  BETA=     0.0000000

 transformation matrix from SAXIS to cartesian coordinates
 ---------------------------------------------------------
     1.0000000 m_x     0.0000000 m_y     0.0000000 m_z
     0.0000000 m_x     1.0000000 m_y     0.0000000 m_z
     0.0000000 m_x     0.0000000 m_y     1.0000000 m_z

 transformation matrix from cartesian coordinates to SAXIS
 ---------------------------------------------------------
     1.0000000 m_x     0.0000000 m_y     0.0000000 m_z
     0.0000000 m_x     1.0000000 m_y     0.0000000 m_z
     0.0000000 m_x     0.0000000 m_y     1.0000000 m_z




--------------------------------------------------------------------------------------------------------


 k-point  1 :   0.0000 0.0000 0.0000  plane waves:    5758
 k-point  2 :   0.1429 0.0000 0.0000  plane waves:    5766
 k-point  3 :   0.2857 0.0000 0.0000  plane waves:    5760
 k-point  4 :   0.4286 0.0000 0.0000  plane waves:    5780
 k-point  5 :  -0.4286 0.0000 0.0000  plane waves:    5780
 k-point  6 :  -0.2857 0.0000 0.0000  plane waves:    5760
 k-point  7 :  -0.1429 0.0000 0.0000  plane waves:    5766
 k-point  8 :   0.0000 0.1429 0.0000  plane waves:    5766
 k-point  9 :   0.1429 0.1429 0.0000  plane waves:    5766
 k-point 10 :   0.2857 0.1429 0.0000  plane waves:    5760
 k-point 11 :   0.4286 0.1429 0.0000  plane waves:    5782
 k-point 12 :  -0.4286 0.1429 0.0000  plane waves:    5782
 k-point 13 :  -0.2857 0.1429 0.0000  plane waves:    5760
 k-point 14 :  -0.1429 0.1429 0.0000  plane waves:    5766
 k-point 15 :   0.0000 0.2857 0.0000  plane waves:    5760
 k-point 16 :   0.1429 0.2857 0.0000  plane waves:    5760
 k-point 17 :   0.2857 0.2857 0.0000  plane waves:    5778
 k-point 18 :   0.4286 0.2857 0.0000  plane waves:    5776
 k-point 19 :  -0.4286 0.2857 0.0000  plane waves:    5776
 k-point 20 :  -0.2857 0.2857 0.0000  plane waves:    5778
 k-point 21 :  -0.1429 0.2857 0.0000  plane waves:    5760
 k-point 22 :   0.0000 0.4286 0.0000  plane waves:    5780
 k-point 23 :   0.1429 0.4286 0.0000  plane waves:    5782
 k-point 24 :   0.2857 0.4286 0.0000  plane waves:    5776
 k-point 25 :   0.4286 0.4286 0.0000  plane waves:    5778
 k-point 26 :  -0.4286 0.4286 0.0000  plane waves:    5778
 k-point 27 :  -0.2857 0.4286 0.0000  plane waves:    5776
 k-point 28 :  -0.1429 0.4286 0.0000  plane waves:    5782
 k-point 29 :   0.0000-0.4286 0.0000  plane waves:    5780
 k-point 30 :   0.1429-0.4286 0.0000  plane waves:    5782
 k-point 31 :   0.2857-0.4286 0.0000  plane waves:    5776
 k-point 32 :   0.4286-0.4286 0.0000  plane waves:    5778
 k-point 33 :  -0.4286-0.4286 0.0000  plane waves:    5778
 k-point 34 :  -0.2857-0.4286 0.0000  plane waves:    5776
 k-point 35 :  -0.1429-0.4286 0.0000  plane waves:    5782
 k-point 36 :   0.0000-0.2857 0.0000  plane waves:    5760
 k-point 37 :   0.1429-0.2857 0.0000  plane waves:    5760
 k-point 38 :   0.2857-0.2857 0.0000  plane waves:    5778
 k-point 39 :   0.4286-0.2857 0.0000  plane waves:    5776
 k-point 40 :  -0.4286-0.2857 0.0000  plane waves:    5776
 k-point 41 :  -0.2857-0.2857 0.0000  plane waves:    5778
 k-point 42 :  -0.1429-0.2857 0.0000  plane waves:    5760
 k-point 43 :   0.0000-0.1429 0.0000  plane waves:    5766
 k-point 44 :   0.1429-0.1429 0.0000  plane waves:    5766
 k-point 45 :   0.2857-0.1429 0.0000  plane waves:    5760
 k-point 46 :   0.4286-0.1429 0.0000  plane waves:    5782
 k-point 47 :  -0.4286-0.1429 0.0000  plane waves:    5782
 k-point 48 :  -0.2857-0.1429 0.0000  plane waves:    5760
 k-point 49 :  -0.1429-0.1429 0.0000  plane waves:    5766
 k-point 50 :   0.0000 0.0000 0.2000  plane waves:    5750
 k-point 51 :   0.1429 0.0000 0.2000  plane waves:    5754
 k-point 52 :   0.2857 0.0000 0.2000  plane waves:    5770
 k-point 53 :   0.4286 0.0000 0.2000  plane waves:    5774
 k-point 54 :  -0.4286 0.0000 0.2000  plane waves:    5774
 k-point 55 :  -0.2857 0.0000 0.2000  plane waves:    5770
 k-point 56 :  -0.1429 0.0000 0.2000  plane waves:    5754
 k-point 57 :   0.0000 0.1429 0.2000  plane waves:    5754
 k-point 58 :   0.1429 0.1429 0.2000  plane waves:    5746
 k-point 59 :   0.2857 0.1429 0.2000  plane waves:    5752
 k-point 60 :   0.4286 0.1429 0.2000  plane waves:    5774
 k-point 61 :  -0.4286 0.1429 0.2000  plane waves:    5774
 k-point 62 :  -0.2857 0.1429 0.2000  plane waves:    5752
 k-point 63 :  -0.1429 0.1429 0.2000  plane waves:    5746
 k-point 64 :   0.0000 0.2857 0.2000  plane waves:    5770
 k-point 65 :   0.1429 0.2857 0.2000  plane waves:    5752
 k-point 66 :   0.2857 0.2857 0.2000  plane waves:    5770
 k-point 67 :   0.4286 0.2857 0.2000  plane waves:    5776
 k-point 68 :  -0.4286 0.2857 0.2000  plane waves:    5776
 k-point 69 :  -0.2857 0.2857 0.2000  plane waves:    5770
 k-point 70 :  -0.1429 0.2857 0.2000  plane waves:    5752
 k-point 71 :   0.0000 0.4286 0.2000  plane waves:    5774
 k-point 72 :   0.1429 0.4286 0.2000  plane waves:    5774
 k-point 73 :   0.2857 0.4286 0.2000  plane waves:    5776
 k-point 74 :   0.4286 0.4286 0.2000  plane waves:    5774
 k-point 75 :  -0.4286 0.4286 0.2000  plane waves:    5774
 k-point 76 :  -0.2857 0.4286 0.2000  plane waves:    5776
 k-point 77 :  -0.1429 0.4286 0.2000  plane waves:    5774
 k-point 78 :   0.0000-0.4286 0.2000  plane waves:    5774
 k-point 79 :   0.1429-0.4286 0.2000  plane waves:    5774
 k-point 80 :   0.2857-0.4286 0.2000  plane waves:    5776
 k-point 81 :   0.4286-0.4286 0.2000  plane waves:    5774
 k-point 82 :  -0.4286-0.4286 0.2000  plane waves:    5774
 k-point 83 :  -0.2857-0.4286 0.2000  plane waves:    5776
 k-point 84 :  -0.1429-0.4286 0.2000  plane waves:    5774
 k-point 85 :   0.0000-0.2857 0.2000  plane waves:    5770
 k-point 86 :   0.1429-0.2857 0.2000  plane waves:    5752
 k-point 87 :   0.2857-0.2857 0.2000  plane waves:    5770
 k-point 88 :   0.4286-0.2857 0.2000  plane waves:    5776
 k-point 89 :  -0.4286-0.2857 0.2000  plane waves:    5776
 k-point 90 :  -0.2857-0.2857 0.2000  plane waves:    5770
 k-point 91 :  -0.1429-0.2857 0.2000  plane waves:    5752
 k-point 92 :   0.0000-0.1429 0.2000  plane waves:    5754
 k-point 93 :   0.1429-0.1429 0.2000  plane waves:    5746
 k-point 94 :   0.2857-0.1429 0.2000  plane waves:    5752
 k-point 95 :   0.4286-0.1429 0.2000  plane waves:    5774
 k-point 96 :  -0.4286-0.1429 0.2000  plane waves:    5774
 k-point 97 :  -0.2857-0.1429 0.2000  plane waves:    5752
 k-point 98 :  -0.1429-0.1429 0.2000  plane waves:    5746
 k-point 99 :   0.0000 0.0000 0.4000  plane waves:    5788
[...]
 pseudopotential strength for first ion, spin component:           3
  0.000  -0.000   0.000  -0.000   0.000  -0.000   0.000   0.000  -0.000   0.000   0.000  -0.000   0.000   0.000  -0.000   0.000
  0.000  -0.000   0.000  -0.000   0.000  -0.000   0.000   0.000  -0.000   0.000   0.000  -0.000   0.000   0.000  -0.000   0.000
  0.000  -0.000   0.000  -0.000  -0.000  -0.000   0.000  -0.038   0.000   0.000  -0.000  -0.000   0.000  -0.072   0.000   0.000
  0.000   0.000   0.000   0.000   0.000   0.038   0.000  -0.000   0.038  -0.000   0.000   0.072   0.000  -0.000   0.072  -0.000
 -0.000   0.000  -0.000   0.000   0.000   0.000  -0.038  -0.000   0.000   0.000   0.000   0.000  -0.072  -0.000   0.000   0.000
  0.000  -0.000   0.000  -0.000  -0.000  -0.000   0.000  -0.072   0.000   0.000  -0.000  -0.000   0.000  -0.138   0.000   0.000
  0.000   0.000   0.000   0.000   0.000   0.072   0.000  -0.000   0.072  -0.000   0.000   0.138   0.000  -0.000   0.138  -0.000
 -0.000   0.000  -0.000   0.000   0.000   0.000  -0.072  -0.000   0.000   0.000   0.000   0.000  -0.138  -0.000   0.000   0.000
  0.000   0.000   0.000   0.000  -0.000   0.000   0.000   0.000   0.000  -0.000  -0.000   0.000   0.000   0.000   0.000  -0.000
  0.000   0.000   0.000   0.000   0.000   0.000   0.000  -0.000   0.000   0.000   0.000   0.000   0.000  -0.000   0.000   0.000
  0.000   0.000   0.000   0.000  -0.000   0.000   0.000   0.000   0.000  -0.000  -0.000   0.000   0.000   0.000   0.000  -0.000
 -0.000  -0.000  -0.000  -0.000   0.000   0.000  -0.000  -0.000   0.000   0.000   0.000   0.000  -0.000  -0.000   0.000   0.000
  0.000   0.000   0.000   0.000  -0.000   0.000   0.000   0.000  -0.000   0.000  -0.000   0.000   0.000   0.000  -0.000   0.000
 pseudopotential strength for first ion, spin component:           4
  5.697   0.000   6.817   0.000  -0.000   0.000  -0.004   0.000  -0.000   0.000  -0.000   0.000  -0.008   0.000  -0.000   0.000
  6.817   0.000   8.149   0.000  -0.000   0.000  -0.005   0.000  -0.000   0.000  -0.000   0.000  -0.010   0.000  -0.000   0.000
 -0.000   0.000  -0.000   0.000   1.277   0.000  -0.000   0.000  -0.000  -0.038   2.132   0.000  -0.000   0.000  -0.000  -0.072
 -0.004   0.000  -0.005   0.000  -0.000   0.000   1.278   0.000  -0.000   0.000  -0.000   0.000   2.135   0.000  -0.000   0.000
 -0.000   0.000  -0.000   0.000  -0.000   0.038  -0.000   0.000   1.279   0.000  -0.000   0.072  -0.000   0.000   2.136   0.000
 -0.000   0.000  -0.000   0.000   2.132   0.000  -0.000   0.000  -0.000  -0.072   3.577   0.000  -0.000   0.000  -0.000  -0.138
 -0.008   0.000  -0.010   0.000  -0.000   0.000   2.135   0.000  -0.000   0.000  -0.000   0.000   3.582   0.000  -0.000   0.000
 -0.000   0.000  -0.000   0.000  -0.000   0.072  -0.000   0.000   2.136   0.000  -0.000   0.138  -0.000   0.000   3.585   0.000
 -0.000   0.000  -0.000   0.000  -0.000   0.000   0.000   0.000  -0.000   0.000  -0.000   0.000   0.000   0.000  -0.000   0.000
 -0.000   0.000  -0.000   0.000  -0.003   0.000  -0.000   0.000   0.000   0.000  -0.005   0.000  -0.000   0.000   0.000   0.000
  0.001   0.000   0.001   0.000   0.000   0.000  -0.001   0.000   0.000   0.000   0.000   0.000  -0.001   0.000   0.000   0.000
 -0.000   0.000  -0.000   0.000   0.000   0.000  -0.000   0.000   0.002   0.000   0.000   0.000  -0.000   0.000   0.004   0.000
  0.004   0.000   0.005   0.000   0.000   0.000   0.002   0.000  -0.000   0.000   0.000   0.000   0.004   0.000  -0.000   0.000
 total augmentation occupancy for first ion, spin component:           1
  4.107  -1.519  -0.000  -0.015   0.000   0.000  -0.004   0.000  -0.000   0.000  -0.000   0.000  -0.030
 -1.519   0.764   0.000   0.058  -0.000  -0.000  -0.005   0.000   0.000  -0.000   0.001  -0.000   0.015
 -0.000   0.000   2.108   0.000   0.000  -0.457  -0.000  -0.000   0.000  -0.213   0.000  -0.000   0.000
 -0.015   0.058   0.000   1.985   0.000  -0.000  -0.417  -0.000  -0.000  -0.000   0.030   0.000   0.202
  0.000  -0.000   0.000   0.000   1.869  -0.000  -0.000  -0.376   0.000  -0.000   0.000   0.189   0.000
  0.000  -0.000  -0.457  -0.000  -0.000   0.107   0.000   0.000   0.000   0.048  -0.000   0.000  -0.000
 -0.004  -0.005  -0.000  -0.417  -0.000   0.000   0.096   0.000   0.000   0.000  -0.006  -0.000  -0.043
  0.000   0.000  -0.000  -0.000  -0.376   0.000   0.000   0.085   0.000   0.000  -0.000  -0.038  -0.000
 -0.000   0.000   0.000  -0.000   0.000   0.000   0.000   0.000   0.010   0.000   0.000   0.000  -0.000
  0.000  -0.000  -0.213  -0.000  -0.000   0.048   0.000   0.000   0.000   0.037  -0.000  -0.000  -0.000
 -0.000   0.001   0.000   0.030   0.000  -0.000  -0.006  -0.000   0.000  -0.000   0.011   0.000   0.004
  0.000  -0.000  -0.000   0.000   0.189   0.000  -0.000  -0.038   0.000  -0.000   0.000   0.034   0.000
 -0.030   0.015   0.000   0.202   0.000  -0.000  -0.043  -0.000  -0.000  -0.000   0.004   0.000   0.036
 total augmentation occupancy for first ion, spin component:           2
 -0.000   0.000  -0.000   0.000  -0.000   0.000  -0.000   0.000   0.000  -0.000  -0.000   0.000  -0.000
  0.000  -0.000   0.000  -0.000   0.000  -0.000   0.000  -0.000  -0.000  -0.000   0.000   0.000   0.000
 -0.000   0.000  -0.000  -0.000  -0.000   0.000   0.000   0.000  -0.000   0.000   0.000   0.000   0.000
  0.000  -0.000  -0.000  -0.000   0.000   0.000   0.000  -0.000   0.000  -0.000  -0.000  -0.000   0.000
 -0.000   0.000  -0.000   0.000  -0.000   0.000  -0.000   0.000  -0.000   0.000   0.000   0.000  -0.000
  0.000  -0.000   0.000   0.000   0.000  -0.000  -0.000  -0.000   0.000  -0.000  -0.000  -0.000  -0.000
 -0.000   0.000   0.000   0.000  -0.000  -0.000  -0.000   0.000  -0.000   0.000   0.000  -0.000   0.000
  0.000  -0.000   0.000  -0.000   0.000  -0.000   0.000  -0.000   0.000  -0.000  -0.000  -0.000   0.000
  0.000  -0.000  -0.000   0.000  -0.000   0.000  -0.000   0.000  -0.000   0.000   0.000  -0.000   0.000
 -0.000  -0.000   0.000  -0.000   0.000  -0.000   0.000  -0.000   0.000  -0.000  -0.000  -0.000  -0.000
 -0.000   0.000   0.000  -0.000   0.000  -0.000   0.000  -0.000   0.000  -0.000  -0.000   0.000   0.000
  0.000   0.000   0.000  -0.000   0.000  -0.000  -0.000  -0.000  -0.000  -0.000   0.000   0.000  -0.000
 -0.000   0.000   0.000   0.000  -0.000  -0.000   0.000   0.000   0.000  -0.000   0.000  -0.000   0.000
 total augmentation occupancy for first ion, spin component:           3
 -0.000   0.000   0.000   0.000  -0.000  -0.000  -0.000   0.000  -0.000   0.000   0.000   0.000  -0.000
  0.000  -0.000  -0.000  -0.000   0.000   0.000   0.000  -0.000   0.000  -0.000  -0.000  -0.000   0.000
  0.000  -0.000  -0.000   0.000  -0.000   0.000  -0.000   0.000  -0.000  -0.000  -0.000  -0.000   0.000
  0.000  -0.000   0.000  -0.000   0.000  -0.000   0.000  -0.000  -0.000  -0.000  -0.000   0.000   0.000
 -0.000   0.000  -0.000   0.000  -0.000   0.000  -0.000   0.000   0.000  -0.000   0.000   0.000  -0.000
 -0.000   0.000   0.000  -0.000   0.000  -0.000   0.000  -0.000   0.000  -0.000   0.000   0.000  -0.000
 -0.000   0.000  -0.000   0.000  -0.000   0.000  -0.000   0.000   0.000   0.000   0.000  -0.000  -0.000
  0.000  -0.000   0.000  -0.000   0.000  -0.000   0.000  -0.000  -0.000   0.000  -0.000  -0.000  -0.000
 -0.000   0.000  -0.000  -0.000   0.000   0.000   0.000  -0.000  -0.000   0.000  -0.000   0.000  -0.000
  0.000  -0.000  -0.000  -0.000  -0.000  -0.000   0.000   0.000   0.000   0.000   0.000  -0.000  -0.000
  0.000  -0.000  -0.000  -0.000   0.000   0.000   0.000  -0.000  -0.000   0.000  -0.000   0.000   0.000
  0.000  -0.000  -0.000   0.000   0.000   0.000  -0.000  -0.000   0.000  -0.000   0.000   0.000  -0.000
 -0.000   0.000   0.000   0.000  -0.000  -0.000  -0.000  -0.000  -0.000  -0.000   0.000  -0.000   0.000
 total augmentation occupancy for first ion, spin component:           4
 -0.000   0.000  -0.000   0.000   0.000   0.000  -0.000  -0.000   0.000   0.000  -0.000   0.000  -0.000
  0.000  -0.000   0.000  -0.000  -0.000  -0.000   0.000   0.000  -0.000  -0.000   0.000  -0.000   0.000
 -0.000   0.000  -0.000  -0.000   0.000   0.000   0.000  -0.000   0.000  -0.000   0.000   0.000  -0.000
  0.000  -0.000  -0.000  -0.000  -0.000   0.000   0.000   0.000   0.000  -0.000  -0.000   0.000   0.000
  0.000  -0.000   0.000  -0.000  -0.000  -0.000   0.000   0.000  -0.000  -0.000  -0.000   0.000   0.000
  0.000  -0.000   0.000   0.000  -0.000  -0.000  -0.000   0.000  -0.000  -0.000  -0.000  -0.000   0.000
 -0.000   0.000   0.000   0.000   0.000  -0.000  -0.000  -0.000  -0.000   0.000   0.000   0.000   0.000
 -0.000   0.000  -0.000   0.000   0.000   0.000  -0.000  -0.000   0.000   0.000   0.000   0.000  -0.000
  0.000  -0.000   0.000   0.000  -0.000  -0.000  -0.000   0.000  -0.000  -0.000  -0.000  -0.000   0.000
  0.000  -0.000  -0.000  -0.000  -0.000  -0.000   0.000   0.000  -0.000  -0.000   0.000   0.000  -0.000
 -0.000   0.000   0.000  -0.000  -0.000  -0.000   0.000   0.000  -0.000   0.000  -0.000  -0.000   0.000
  0.000  -0.000   0.000   0.000   0.000  -0.000   0.000   0.000  -0.000   0.000  -0.000   0.000   0.000
 -0.000   0.000  -0.000   0.000   0.000   0.000   0.000  -0.000   0.000  -0.000   0.000   0.000   0.000


------------------------ aborting loop because EDIFF is reached ----------------------------------------


    CHARGE:  cpu time    1.1419: real time    2.3143
    FORLOC:  cpu time    0.0043: real time    0.0086
    FORNL :  cpu time    3.2838: real time    4.1181
    STRESS:  cpu time    3.2649: real time    6.6069
    FORCOR:  cpu time    0.0957: real time    0.2131
    FORHAR:  cpu time    0.0276: real time    0.0507
    MIXING:  cpu time    0.0321: real time    0.0692
    OFIELD:  cpu time    0.0001: real time    0.0001

  FORCE on cell =-STRESS in cart. coord.  units (eV):
  Direction    XX          YY          ZZ          XY          YZ          ZX
  --------------------------------------------------------------------------------------
  Alpha Z    64.20129    64.20129    64.20129
  Ewald    -439.74121  -439.74123  -560.43629     0.00000     0.00000    -0.00000
  Hartree   290.89600   290.89600   172.81503     0.00000    -0.00000    -0.00000
  E(xc)    -113.06812  -113.06812  -113.02768    -0.00000    -0.00000    -0.00000
  Local    -321.32552  -321.32548   -82.49760    -0.00000     0.00000    -0.00000
  n-local   155.67443   155.67443   155.87466    -0.00000     0.00001     0.00001
  augment   138.72639   138.72639   138.67533    -0.00000     0.00000     0.00000
  Kinetic   224.94834   224.94834   224.70192     0.00000    -0.00000    -0.00000
  Fock        0.00000     0.00000     0.00000     0.00000     0.00000     0.00000
  -------------------------------------------------------------------------------------
  Total       0.31161     0.31161     0.30665    -0.00000     0.00001     0.00001
  in kB       4.39311     4.39309     4.32315    -0.00006     0.00008     0.00008
  external pressure =        4.37 kB  Pullay stress =        0.00 kB


 VOLUME and BASIS-vectors are now :
 -----------------------------------------------------------------------------
  energy-cutoff  :      500.00
  volume of cell :      113.64
      direct lattice vectors                 reciprocal lattice vectors
     4.300140858  0.000000000  0.000000000     0.232550522  0.000000000  0.000000000
     0.000000000  4.300140858  0.000000000     0.000000000  0.232550522  0.000000000
     0.000000000  0.000000000  6.145861149     0.000000000  0.000000000  0.162711128

  length of vectors
     4.300140858  4.300140858  6.145861149     0.232550522  0.232550522  0.162711128


 FORCES acting on ions
    electron-ion (+dipol)            ewald-force                    non-local-force                 convergence-correction
 -----------------------------------------------------------------------------------------------
   -.124E-06 0.836E-07 0.477E+02   0.261E-14 -.178E-15 -.473E+02   0.215E-06 -.214E-07 -.400E+00   -.255E-06 -.780E-07 0.197E-03
   0.249E-06 -.135E-07 -.477E+02   -.168E-14 -.547E-14 0.473E+02   -.102E-06 -.165E-06 0.400E+00   -.127E-06 0.384E-06 -.197E-03
   -.585E-05 0.640E-05 -.284E-05   -.341E-14 0.631E-14 0.425E-05   -.279E-04 0.294E-04 -.102E-05   0.402E-04 -.439E-04 -.828E-06
   -.406E-05 0.366E-05 -.266E-06   0.139E-14 0.780E-16 0.515E-06   0.193E-05 -.186E-05 0.151E-07   0.231E-05 -.198E-05 0.124E-06
 -----------------------------------------------------------------------------------------------
   -.979E-05 0.101E-04 0.151E-05   -.109E-14 0.740E-15 -.355E-14   -.259E-04 0.273E-04 -.163E-05   0.421E-04 -.456E-04 -.719E-06
 
 
 POSITION                                       TOTAL-FORCE (eV/Angst)
 -----------------------------------------------------------------------------------
      2.15007      0.00000      4.46027        -0.000002      0.000002     -0.068068
      0.00000      2.15007      1.68559        -0.000002      0.000002      0.068068
      0.00000      0.00000      0.00000         0.000005     -0.000006     -0.000000
      2.15007      2.15007      3.07293        -0.000001      0.000002      0.000001
 -----------------------------------------------------------------------------------
    total drift:                                0.000006     -0.000008     -0.000001


--------------------------------------------------------------------------------------------------------



  FREE ENERGIE OF THE ION-ELECTRON SYSTEM (eV)
  ---------------------------------------------------
  free  energy   TOTEN  =       -15.63388243 eV

  energy  without entropy=      -15.63143777  energy(sigma->0) =      -15.63306754
 


--------------------------------------------------------------------------------------------------------


    POTLOK:  cpu time    0.1191: real time    0.2459


--------------------------------------------------------------------------------------------------------


 writing wavefunctions
     LOOP+:  cpu time  860.3023: real time 1681.9549
    4ORBIT:  cpu time    0.0000: real time    0.0000

 Spin-Orbit-Coupling matrix elements

 Ion:    1  E_soc:     -0.0071258
 l=   1
     0.0000000    -0.0009897    -0.0012104
    -0.0009897     0.0000000    -0.0014149
    -0.0012104    -0.0014149     0.0000000
 l=   2
     0.0000000    -0.0000007     0.0000000     0.0000052     0.0000005
    -0.0000007     0.0000000    -0.0000059     0.0000168     0.0000067
     0.0000000    -0.0000059     0.0000000     0.0000148     0.0000000
     0.0000052     0.0000168     0.0000148     0.0000000     0.0000146
     0.0000005     0.0000067     0.0000000     0.0000146     0.0000000
 l=   3
     0.0000000     0.0000000     0.0000000     0.0000000     0.0000000     0.0000000     0.0000000
     0.0000000     0.0000000     0.0000000     0.0000000     0.0000000     0.0000000     0.0000000
     0.0000000     0.0000000     0.0000000     0.0000000     0.0000000     0.0000000     0.0000000
     0.0000000     0.0000000     0.0000000     0.0000000     0.0000000     0.0000000     0.0000000
     0.0000000     0.0000000     0.0000000     0.0000000     0.0000000     0.0000000     0.0000000
     0.0000000     0.0000000     0.0000000     0.0000000     0.0000000     0.0000000     0.0000000
     0.0000000     0.0000000     0.0000000     0.0000000     0.0000000     0.0000000     0.0000000

 Ion:    2  E_soc:     -0.0071258
 l=   1
     0.0000000    -0.0014149    -0.0012104
    -0.0014149     0.0000000    -0.0009897
    -0.0012104    -0.0009897     0.0000000
 l=   2
     0.0000000     0.0000052     0.0000000    -0.0000007     0.0000005
     0.0000052     0.0000000     0.0000148     0.0000168     0.0000146
     0.0000000     0.0000148     0.0000000    -0.0000059     0.0000000
    -0.0000007     0.0000168    -0.0000059     0.0000000     0.0000067
     0.0000005     0.0000146     0.0000000     0.0000067     0.0000000
 l=   3
     0.0000000     0.0000000     0.0000000     0.0000000     0.0000000     0.0000000     0.0000000
     0.0000000     0.0000000     0.0000000     0.0000000     0.0000000     0.0000000     0.0000000
     0.0000000     0.0000000     0.0000000     0.0000000     0.0000000     0.0000000     0.0000000
     0.0000000     0.0000000     0.0000000     0.0000000     0.0000000     0.0000000     0.0000000
     0.0000000     0.0000000     0.0000000     0.0000000     0.0000000     0.0000000     0.0000000
     0.0000000     0.0000000     0.0000000     0.0000000     0.0000000     0.0000000     0.0000000
     0.0000000     0.0000000     0.0000000     0.0000000     0.0000000     0.0000000     0.0000000

 Ion:    3  E_soc:     -1.5808483
 l=   1
     0.0000000    -0.1937092    -0.2014934
    -0.1937092     0.0000000    -0.1937092
    -0.2014934    -0.1937092     0.0000000
 l=   2
     0.0000000    -0.0133435     0.0000000    -0.0133435    -0.0533962
    -0.0133435     0.0000000    -0.0401049    -0.0138432    -0.0136882
     0.0000000    -0.0401049     0.0000000    -0.0401049     0.0000000
    -0.0133435    -0.0138432    -0.0401049     0.0000000    -0.0136882
    -0.0533962    -0.0136882     0.0000000    -0.0136882     0.0000000
 l=   3
     0.0000000     0.0000000     0.0000000     0.0000000     0.0000000     0.0000000     0.0000000
     0.0000000     0.0000000     0.0000000     0.0000000     0.0000000     0.0000000     0.0000000
     0.0000000     0.0000000     0.0000000     0.0000000     0.0000000     0.0000000     0.0000000
     0.0000000     0.0000000     0.0000000     0.0000000     0.0000000     0.0000000     0.0000000
     0.0000000     0.0000000     0.0000000     0.0000000     0.0000000     0.0000000     0.0000000
     0.0000000     0.0000000     0.0000000     0.0000000     0.0000000     0.0000000     0.0000000
     0.0000000     0.0000000     0.0000000     0.0000000     0.0000000     0.0000000     0.0000000

 Ion:    4  E_soc:     -0.0294881
 l=   1
     0.0000000    -0.0048827    -0.0049481
    -0.0048827     0.0000000    -0.0048827
    -0.0049481    -0.0048827     0.0000000
 l=   2
     0.0000000    -0.0000023     0.0000000    -0.0000023    -0.0000092
    -0.0000023     0.0000000    -0.0000075    -0.0000001    -0.0000009
     0.0000000    -0.0000075     0.0000000    -0.0000075     0.0000000
    -0.0000023    -0.0000001    -0.0000075     0.0000000    -0.0000009
    -0.0000092    -0.0000009     0.0000000    -0.0000009     0.0000000
 l=   3
     0.0000000     0.0000000     0.0000000     0.0000000     0.0000000     0.0000000     0.0000000
     0.0000000     0.0000000     0.0000000     0.0000000     0.0000000     0.0000000     0.0000000
     0.0000000     0.0000000     0.0000000     0.0000000     0.0000000     0.0000000     0.0000000
     0.0000000     0.0000000     0.0000000     0.0000000     0.0000000     0.0000000     0.0000000
     0.0000000     0.0000000     0.0000000     0.0000000     0.0000000     0.0000000     0.0000000
     0.0000000     0.0000000     0.0000000     0.0000000     0.0000000     0.0000000     0.0000000
     0.0000000     0.0000000     0.0000000     0.0000000     0.0000000     0.0000000     0.0000000

 total amount of memory used by VASP MPI-rank0   111306. kBytes
=======================================================================

   base      :      30000. kBytes
   nonl-proj :      39396. kBytes
   fftplans  :       1037. kBytes
   grid      :       3932. kBytes
   one-center:         62. kBytes
   wavefun   :      36879. kBytes
 
  
  
 General timing and accounting informations for this job:
 ========================================================
  
                  Total CPU time used (sec):      875.203
                            User time (sec):      870.386
                          System time (sec):        4.817
                         Elapsed time (sec):     1721.132
  
                   Maximum memory used (kb):      169888.
                   Average memory used (kb):           0.
  
                          Minor page faults:        62399
                          Major page faults:            0
                 Voluntary context switches:          995
