<?xml version="1.0" encoding="ISO-8859-1"?>
<modeling>
 <generator>
  <i name="program" type="string">vasp </i>
  <i name="version" type="string">5.4.4.18Apr17-6-g9f103f2a35  </i>
  <i name="subversion" type="string">(build Dec 22 2021 20:15:33) complex            parallel </i>
  <i name="platform" type="string">LinuxIFC </i>
  <i name="date" type="string">2022 01 21 </i>
  <i name="time" type="string">21:39:21 </i>
 </generator>
 <incar>
  <i type="string" name="SYSTEM"> Ga2BiAs</i>
  <i type="string" name="PREC">accurate</i>
  <i type="logical" name="LSORBIT"> T  </i>
  <v name="SAXIS">      0.00000000      0.00000000      1.00000000</v>
  <i type="int" name="ISPIN">     2</i>
  <i type="int" name="ICHARG">     2</i>
  <i name="EDIFF">      0.00000100</i>
  <i name="EDIFFG">     -0.01000000</i>
  <i name="ENCUT">    500.00000000</i>
  <i type="int" name="NBANDS">    48</i>
  <i type="logical" name="LWAVE"> T  </i>
  <i type="logical" name="LCHARG"> T  </i>
  <v type="int" name="KPOINT_BSE">    -1     0     0     0</v>
 </incar>
 <structure name="primitive_cell" >
  <crystal>
   <varray name="basis" >
    <v>       4.30014086       0.00000000       0.00000000 </v>
    <v>       0.00000000       4.30014086       0.00000000 </v>
    <v>       0.00000000       0.00000000       6.14586115 </v>
   </varray>
   <i name="volume">    113.64441771 </i>
   <varray name="rec_basis" >
    <v>       0.23255052       0.00000000       0.00000000 </v>
    <v>       0.00000000       0.23255052       0.00000000 </v>
    <v>       0.00000000       0.00000000       0.16271113 </v>
   </varray>
  </crystal>
  <varray name="positions" >
   <v>      -0.50000000       0.00000000      -0.27426398 </v>
   <v>      -0.50000000      -0.50000000      -0.50000000 </v>
   <v>       0.00000000       0.00000000       0.00000000 </v>
   <v>       0.00000000      -0.50000000       0.27426400 </v>
  </varray>
 </structure>
 <varray name="primitive_index" >
  <v type="int" >        1 </v>
  <v type="int" >        4 </v>
  <v type="int" >        3 </v>
  <v type="int" >        2 </v>
 </varray>
 <kpoints>
  <generation param="Gamma">
   <v type="int" name="divisions">       7        7        5 </v>
   <v name="usershift">      0.00000000       0.00000000       0.00000000 </v>
   <v name="genvec1">      0.14285714       0.00000000       0.00000000 </v>
   <v name="genvec2">      0.00000000       0.14285714       0.00000000 </v>
   <v name="genvec3">      0.00000000       0.00000000       0.20000000 </v>
   <v name="shift">      0.00000000       0.00000000       0.00000000 </v>
  </generation>
  <varray name="kpointlist" >
   <v>       0.00000000       0.00000000       0.00000000 </v>
   <v>       0.14285714       0.00000000       0.00000000 </v>
   <v>       0.28571429       0.00000000       0.00000000 </v>
   <v>       0.42857143       0.00000000       0.00000000 </v>
   <v>      -0.42857143       0.00000000       0.00000000 </v>
   <v>      -0.28571429       0.00000000       0.00000000 </v>
   <v>      -0.14285714       0.00000000       0.00000000 </v>
   <v>       0.00000000       0.14285714       0.00000000 </v>
   <v>       0.14285714       0.14285714       0.00000000 </v>
   <v>       0.28571429       0.14285714       0.00000000 </v>
   <v>       0.42857143       0.14285714       0.00000000 </v>
   <v>      -0.42857143       0.14285714       0.00000000 </v>
   <v>      -0.28571429       0.14285714       0.00000000 </v>
   <v>      -0.14285714       0.14285714       0.00000000 </v>
   <v>       0.00000000       0.28571429       0.00000000 </v>
   <v>       0.14285714       0.28571429       0.00000000 </v>
   <v>       0.28571429       0.28571429       0.00000000 </v>
   <v>       0.42857143       0.28571429       0.00000000 </v>
   <v>      -0.42857143       0.28571429       0.00000000 </v>
   <v>      -0.28571429       0.28571429       0.00000000 </v>
   <v>      -0.14285714       0.28571429       0.00000000 </v>
   <v>       0.00000000       0.42857143       0.00000000 </v>
   <v>       0.14285714       0.42857143       0.00000000 </v>
   <v>       0.28571429       0.42857143       0.00000000 </v>
   <v>       0.42857143       0.42857143       0.00000000 </v>
   <v>      -0.42857143       0.42857143       0.00000000 </v>
   <v>      -0.28571429       0.42857143       0.00000000 </v>
   <v>      -0.14285714       0.42857143       0.00000000 </v>
   <v>       0.00000000      -0.42857143       0.00000000 </v>
   <v>       0.14285714      -0.42857143       0.00000000 </v>
   <v>       0.28571429      -0.42857143       0.00000000 </v>
   <v>       0.42857143      -0.42857143       0.00000000 </v>
   <v>      -0.42857143      -0.42857143       0.00000000 </v>
   <v>      -0.28571429      -0.42857143       0.00000000 </v>
   <v>      -0.14285714      -0.42857143       0.00000000 </v>
   <v>       0.00000000      -0.28571429       0.00000000 </v>
   <v>       0.14285714      -0.28571429       0.00000000 </v>
   <v>       0.28571429      -0.28571429       0.00000000 </v>
   <v>       0.42857143      -0.28571429       0.00000000 </v>
   <v>      -0.42857143      -0.28571429       0.00000000 </v>
   <v>      -0.28571429      -0.28571429       0.00000000 </v>
   <v>      -0.14285714      -0.28571429       0.00000000 </v>
   <v>       0.00000000      -0.14285714       0.00000000 </v>
   <v>       0.14285714      -0.14285714       0.00000000 </v>
   <v>       0.28571429      -0.14285714       0.00000000 </v>
   <v>       0.42857143      -0.14285714       0.00000000 </v>
   <v>      -0.42857143      -0.14285714       0.00000000 </v>
   <v>      -0.28571429      -0.14285714       0.00000000 </v>
   <v>      -0.14285714      -0.14285714       0.00000000 </v>
   <v>       0.00000000       0.00000000       0.20000000 </v>
   <v>       0.14285714       0.00000000       0.20000000 </v>
   <v>       0.28571429       0.00000000       0.20000000 </v>
   <v>       0.42857143       0.00000000       0.20000000 </v>
   <v>      -0.42857143       0.00000000       0.20000000 </v>
   <v>      -0.28571429       0.00000000       0.20000000 </v>
   <v>      -0.14285714       0.00000000       0.20000000 </v>
   <v>       0.00000000       0.14285714       0.20000000 </v>
   <v>       0.14285714       0.14285714       0.20000000 </v>
   <v>       0.28571429       0.14285714       0.20000000 </v>
   <v>       0.42857143       0.14285714       0.20000000 </v>
   <v>      -0.42857143       0.14285714       0.20000000 </v>
   <v>      -0.28571429       0.14285714       0.20000000 </v>
   <v>      -0.14285714       0.14285714       0.20000000 </v>
   <v>       0.00000000       0.28571429       0.20000000 </v>
   <v>       0.14285714       0.28571429       0.20000000 </v>
   <v>       0.28571429       0.28571429       0.20000000 </v>
   <v>       0.42857143       0.28571429       0.20000000 </v>
   <v>      -0.42857143       0.28571429       0.20000000 </v>
   <v>      -0.28571429       0.28571429       0.20000000 </v>
   <v>      -0.14285714       0.28571429       0.20000000 </v>
   <v>       0.00000000       0.42857143       0.20000000 </v>
   <v>       0.14285714       0.42857143       0.20000000 </v>
   <v>       0.28571429       0.42857143       0.20000000 </v>
   <v>       0.42857143       0.42857143       0.20000000 </v>
   <v>      -0.42857143       0.42857143       0.20000000 </v>
   <v>      -0.28571429       0.42857143       0.20000000 </v>
   <v>      -0.14285714       0.42857143       0.20000000 </v>
   <v>       0.00000000      -0.42857143       0.20000000 </v>
   <v>       0.14285714      -0.42857143       0.20000000 </v>
   <v>       0.28571429      -0.42857143       0.20000000 </v>
   <v>       0.42857143      -0.42857143       0.20000000 </v>
   <v>      -0.42857143      -0.42857143       0.20000000 </v>
   <v>      -0.28571429      -0.42857143       0.20000000 </v>
   <v>      -0.14285714      -0.42857143       0.20000000 </v>
   <v>       0.00000000      -0.28571429       0.20000000 </v>
   <v>       0.14285714      -0.28571429       0.20000000 </v>
   <v>       0.28571429      -0.28571429       0.20000000 </v>
   <v>       0.42857143      -0.28571429       0.20000000 </v>
   <v>      -0.42857143      -0.28571429       0.20000000 </v>
   <v>      -0.28571429      -0.28571429       0.20000000 </v>
   <v>      -0.14285714      -0.28571429       0.20000000 </v>
   <v>       0.00000000      -0.14285714       0.20000000 </v>
   <v>       0.14285714      -0.14285714       0.20000000 </v>
   <v>       0.28571429      -0.14285714       0.20000000 </v>
   <v>       0.42857143      -0.14285714       0.20000000 </v>
   <v>      -0.42857143      -0.14285714       0.20000000 </v>
   <v>      -0.28571429      -0.14285714       0.20000000 </v>
   <v>      -0.14285714      -0.14285714       0.20000000 </v>
   <v>       0.00000000       0.00000000       0.40000000 </v>
   <v>       0.14285714       0.00000000       0.40000000 </v>
   <v>       0.28571429       0.00000000       0.40000000 </v>
   <v>       0.42857143       0.00000000       0.40000000 </v>
   <v>      -0.42857143       0.00000000       0.40000000 </v>
   <v>      -0.28571429       0.00000000       0.40000000 </v>
   <v>      -0.14285714       0.00000000       0.40000000 </v>
   <v>       0.00000000       0.14285714       0.40000000 </v>
   <v>       0.14285714       0.14285714       0.40000000 </v>
   <v>       0.28571429       0.14285714       0.40000000 </v>
   <v>       0.42857143       0.14285714       0.40000000 </v>
   <v>      -0.42857143       0.14285714       0.40000000 </v>
   <v>      -0.28571429       0.14285714       0.40000000 </v>
   <v>      -0.14285714       0.14285714       0.40000000 </v>
   <v>       0.00000000       0.28571429       0.40000000 </v>
   <v>       0.14285714       0.28571429       0.40000000 </v>
   <v>       0.28571429       0.28571429       0.40000000 </v>
   <v>       0.42857143       0.28571429       0.40000000 </v>
   <v>      -0.42857143       0.28571429       0.40000000 </v>
   <v>      -0.28571429       0.28571429       0.40000000 </v>
   <v>      -0.14285714       0.28571429       0.40000000 </v>
   <v>       0.00000000       0.42857143       0.40000000 </v>
   <v>       0.14285714       0.42857143       0.40000000 </v>
   <v>       0.28571429       0.42857143       0.40000000 </v>
   <v>       0.42857143       0.42857143       0.40000000 </v>
   <v>      -0.42857143       0.42857143       0.40000000 </v>
   <v>      -0.28571429       0.42857143       0.40000000 </v>
   <v>      -0.14285714       0.42857143       0.40000000 </v>
   <v>       0.00000000      -0.42857143       0.40000000 </v>
   <v>       0.14285714      -0.42857143       0.40000000 </v>
   <v>       0.28571429      -0.42857143       0.40000000 </v>
   <v>       0.42857143      -0.42857143       0.40000000 </v>
   <v>      -0.42857143      -0.42857143       0.40000000 </v>
   <v>      -0.28571429      -0.42857143       0.40000000 </v>
   <v>      -0.14285714      -0.42857143       0.40000000 </v>
   <v>       0.00000000      -0.28571429       0.40000000 </v>
   <v>       0.14285714      -0.28571429       0.40000000 </v>
   <v>       0.28571429      -0.28571429       0.40000000 </v>
   <v>       0.42857143      -0.28571429       0.40000000 </v>
   <v>      -0.42857143      -0.28571429       0.40000000 </v>
   <v>      -0.28571429      -0.28571429       0.40000000 </v>
   <v>      -0.14285714      -0.28571429       0.40000000 </v>
   <v>       0.00000000      -0.14285714       0.40000000 </v>
   <v>       0.14285714      -0.14285714       0.40000000 </v>
   <v>       0.28571429      -0.14285714       0.40000000 </v>
   <v>       0.42857143      -0.14285714       0.40000000 </v>
   <v>      -0.42857143      -0.14285714       0.40000000 </v>
   <v>      -0.28571429      -0.14285714       0.40000000 </v>
   <v>      -0.14285714      -0.14285714       0.40000000 </v>
   <v>       0.00000000       0.00000000      -0.40000000 </v>
   <v>       0.14285714       0.00000000      -0.40000000 </v>
   <v>       0.28571429       0.00000000      -0.40000000 </v>
   <v>       0.42857143       0.00000000      -0.40000000 </v>
   <v>      -0.42857143       0.00000000      -0.40000000 </v>
   <v>      -0.28571429       0.00000000      -0.40000000 </v>
   <v>      -0.14285714       0.00000000      -0.40000000 </v>
   <v>       0.00000000       0.14285714      -0.40000000 </v>
   <v>       0.14285714       0.14285714      -0.40000000 </v>
   <v>       0.28571429       0.14285714      -0.40000000 </v>
   <v>       0.42857143       0.14285714      -0.40000000 </v>
   <v>      -0.42857143       0.14285714      -0.40000000 </v>
   <v>      -0.28571429       0.14285714      -0.40000000 </v>
   <v>      -0.14285714       0.14285714      -0.40000000 </v>
   <v>       0.00000000       0.28571429      -0.40000000 </v>
   <v>       0.14285714       0.28571429      -0.40000000 </v>
   <v>       0.28571429       0.28571429      -0.40000000 </v>
   <v>       0.42857143       0.28571429      -0.40000000 </v>
   <v>      -0.42857143       0.28571429      -0.40000000 </v>
   <v>      -0.28571429       0.28571429      -0.40000000 </v>
   <v>      -0.14285714       0.28571429      -0.40000000 </v>
   <v>       0.00000000       0.42857143      -0.40000000 </v>
   <v>       0.14285714       0.42857143      -0.40000000 </v>
   <v>       0.28571429       0.42857143      -0.40000000 </v>
   <v>       0.42857143       0.42857143      -0.40000000 </v>
   <v>      -0.42857143       0.42857143      -0.40000000 </v>
   <v>      -0.28571429       0.42857143      -0.40000000 </v>
   <v>      -0.14285714       0.42857143      -0.40000000 </v>
   <v>       0.00000000      -0.42857143      -0.40000000 </v>
   <v>       0.14285714      -0.42857143      -0.40000000 </v>
   <v>       0.28571429      -0.42857143      -0.40000000 </v>
   <v>       0.42857143      -0.42857143      -0.40000000 </v>
   <v>      -0.42857143      -0.42857143      -0.40000000 </v>
   <v>      -0.28571429      -0.42857143      -0.40000000 </v>
   <v>      -0.14285714      -0.42857143      -0.40000000 </v>
   <v>       0.00000000      -0.28571429      -0.40000000 </v>
   <v>       0.14285714      -0.28571429      -0.40000000 </v>
   <v>       0.28571429      -0.28571429      -0.40000000 </v>
   <v>       0.42857143      -0.28571429      -0.40000000 </v>
   <v>      -0.42857143      -0.28571429      -0.40000000 </v>
   <v>      -0.28571429      -0.28571429      -0.40000000 </v>
   <v>      -0.14285714      -0.28571429      -0.40000000 </v>
   <v>       0.00000000      -0.14285714      -0.40000000 </v>
   <v>       0.14285714      -0.14285714      -0.40000000 </v>
   <v>       0.28571429      -0.14285714      -0.40000000 </v>
   <v>       0.42857143      -0.14285714      -0.40000000 </v>
   <v>      -0.42857143      -0.14285714      -0.40000000 </v>
   <v>      -0.28571429      -0.14285714      -0.40000000 </v>
   <v>      -0.14285714      -0.14285714      -0.40000000 </v>
   <v>       0.00000000       0.00000000      -0.20000000 </v>
   <v>       0.14285714       0.00000000      -0.20000000 </v>
   <v>       0.28571429       0.00000000      -0.20000000 </v>
   <v>       0.42857143       0.00000000      -0.20000000 </v>
   <v>      -0.42857143       0.00000000      -0.20000000 </v>
   <v>      -0.28571429       0.00000000      -0.20000000 </v>
   <v>      -0.14285714       0.00000000      -0.20000000 </v>
   <v>       0.00000000       0.14285714      -0.20000000 </v>
   <v>       0.14285714       0.14285714      -0.20000000 </v>
   <v>       0.28571429       0.14285714      -0.20000000 </v>
   <v>       0.42857143       0.14285714      -0.20000000 </v>
   <v>      -0.42857143       0.14285714      -0.20000000 </v>
   <v>      -0.28571429       0.14285714      -0.20000000 </v>
   <v>      -0.14285714       0.14285714      -0.20000000 </v>
   <v>       0.00000000       0.28571429      -0.20000000 </v>
   <v>       0.14285714       0.28571429      -0.20000000 </v>
   <v>       0.28571429       0.28571429      -0.20000000 </v>
   <v>       0.42857143       0.28571429      -0.20000000 </v>
   <v>      -0.42857143       0.28571429      -0.20000000 </v>
   <v>      -0.28571429       0.28571429      -0.20000000 </v>
   <v>      -0.14285714       0.28571429      -0.20000000 </v>
   <v>       0.00000000       0.42857143      -0.20000000 </v>
   <v>       0.14285714       0.42857143      -0.20000000 </v>
   <v>       0.28571429       0.42857143      -0.20000000 </v>
   <v>       0.42857143       0.42857143      -0.20000000 </v>
   <v>      -0.42857143       0.42857143      -0.20000000 </v>
   <v>      -0.28571429       0.42857143      -0.20000000 </v>
   <v>      -0.14285714       0.42857143      -0.20000000 </v>
   <v>       0.00000000      -0.42857143      -0.20000000 </v>
   <v>       0.14285714      -0.42857143      -0.20000000 </v>
   <v>       0.28571429      -0.42857143      -0.20000000 </v>
   <v>       0.42857143      -0.42857143      -0.20000000 </v>
   <v>      -0.42857143      -0.42857143      -0.20000000 </v>
   <v>      -0.28571429      -0.42857143      -0.20000000 </v>
   <v>      -0.14285714      -0.42857143      -0.20000000 </v>
   <v>       0.00000000      -0.28571429      -0.20000000 </v>
   <v>       0.14285714      -0.28571429      -0.20000000 </v>
   <v>       0.28571429      -0.28571429      -0.20000000 </v>
   <v>       0.42857143      -0.28571429      -0.20000000 </v>
   <v>      -0.42857143      -0.28571429      -0.20000000 </v>
   <v>      -0.28571429      -0.28571429      -0.20000000 </v>
   <v>      -0.14285714      -0.28571429      -0.20000000 </v>
   <v>       0.00000000      -0.14285714      -0.20000000 </v>
   <v>       0.14285714      -0.14285714      -0.20000000 </v>
   <v>       0.28571429      -0.14285714      -0.20000000 </v>
   <v>       0.42857143      -0.14285714      -0.20000000 </v>
   <v>      -0.42857143      -0.14285714      -0.20000000 </v>
   <v>      -0.28571429      -0.14285714      -0.20000000 </v>
   <v>      -0.14285714      -0.14285714      -0.20000000 </v>
  </varray>
  <varray name="weights" >
   <v>       0.00408163 </v>
   <v>       0.00408163 </v>
   <v>       0.00408163 </v>
   <v>       0.00408163 </v>
   <v>       0.00408163 </v>
   <v>       0.00408163 </v>
   <v>       0.00408163 </v>
   <v>       0.00408163 </v>
   <v>       0.00408163 </v>
   <v>       0.00408163 </v>
   <v>       0.00408163 </v>
   <v>       0.00408163 </v>
   <v>       0.00408163 </v>
   <v>       0.00408163 </v>
   <v>       0.00408163 </v>
   <v>       0.00408163 </v>
   <v>       0.00408163 </v>
   <v>       0.00408163 </v>
   <v>       0.00408163 </v>
   <v>       0.00408163 </v>
   <v>       0.00408163 </v>
   <v>       0.00408163 </v>
   <v>       0.00408163 </v>
   <v>       0.00408163 </v>
   <v>       0.00408163 </v>
   <v>       0.00408163 </v>
   <v>       0.00408163 </v>
   <v>       0.00408163 </v>
   <v>       0.00408163 </v>
   <v>       0.00408163 </v>
   <v>       0.00408163 </v>
   <v>       0.00408163 </v>
   <v>       0.00408163 </v>
   <v>       0.00408163 </v>
   <v>       0.00408163 </v>
   <v>       0.00408163 </v>
   <v>       0.00408163 </v>
   <v>       0.00408163 </v>
   <v>       0.00408163 </v>
   <v>       0.00408163 </v>
   <v>       0.00408163 </v>
   <v>       0.00408163 </v>
   <v>       0.00408163 </v>
   <v>       0.00408163 </v>
   <v>       0.00408163 </v>
   <v>       0.00408163 </v>
   <v>       0.00408163 </v>
   <v>       0.00408163 </v>
   <v>       0.00408163 </v>
   <v>       0.00408163 </v>
   <v>       0.00408163 </v>
   <v>       0.00408163 </v>
   <v>       0.00408163 </v>
   <v>       0.00408163 </v>
   <v>       0.00408163 </v>
   <v>       0.00408163 </v>
   <v>       0.00408163 </v>
   <v>       0.00408163 </v>
   <v>       0.00408163 </v>
   <v>       0.00408163 </v>
   <v>       0.00408163 </v>
   <v>       0.00408163 </v>
   <v>       0.00408163 </v>
   <v>       0.00408163 </v>
   <v>       0.00408163 </v>
   <v>       0.00408163 </v>
   <v>       0.00408163 </v>
   <v>       0.00408163 </v>
   <v>       0.00408163 </v>
   <v>       0.00408163 </v>
   <v>       0.00408163 </v>
   <v>       0.00408163 </v>
   <v>       0.00408163 </v>
   <v>       0.00408163 </v>
   <v>       0.00408163 </v>
   <v>       0.00408163 </v>
   <v>       0.00408163 </v>
   <v>       0.00408163 </v>
   <v>       0.00408163 </v>
   <v>       0.00408163 </v>
   <v>       0.00408163 </v>
   <v>       0.00408163 </v>
   <v>       0.00408163 </v>
   <v>       0.00408163 </v>
   <v>       0.00408163 </v>
   <v>       0.00408163 </v>
   <v>       0.00408163 </v>
   <v>       0.00408163 </v>
   <v>       0.00408163 </v>
   <v>       0.00408163 </v>
   <v>       0.00408163 </v>
   <v>       0.00408163 </v>
   <v>       0.00408163 </v>
   <v>       0.00408163 </v>
   <v>       0.00408163 </v>
   <v>       0.00408163 </v>
   <v>       0.00408163 </v>
   <v>       0.00408163 </v>
   <v>       0.00408163 </v>
   <v>       0.00408163 </v>
   <v>       0.00408163 </v>
   <v>       0.00408163 </v>
   <v>       0.00408163 </v>
   <v>       0.00408163 </v>
   <v>       0.00408163 </v>
   <v>       0.00408163 </v>
   <v>       0.00408163 </v>
   <v>       0.00408163 </v>
   <v>       0.00408163 </v>
   <v>       0.00408163 </v>
   <v>       0.00408163 </v>
   <v>       0.00408163 </v>
   <v>       0.00408163 </v>
   <v>       0.00408163 </v>
   <v>       0.00408163 </v>
   <v>       0.00408163 </v>
   <v>       0.00408163 </v>
   <v>       0.00408163 </v>
   <v>       0.00408163 </v>
   <v>       0.00408163 </v>
   <v>       0.00408163 </v>
   <v>       0.00408163 </v>
   <v>       0.00408163 </v>
   <v>       0.00408163 </v>
   <v>       0.00408163 </v>
   <v>       0.00408163 </v>
   <v>       0.00408163 </v>
   <v>       0.00408163 </v>
   <v>       0.00408163 </v>
   <v>       0.00408163 </v>
   <v>       0.00408163 </v>
   <v>       0.00408163 </v>
   <v>       0.00408163 </v>
   <v>       0.00408163 </v>
   <v>       0.00408163 </v>
   <v>       0.00408163 </v>
   <v>       0.00408163 </v>
   <v>       0.00408163 </v>
   <v>       0.00408163 </v>
   <v>       0.00408163 </v>
   <v>       0.00408163 </v>
   <v>       0.00408163 </v>
   <v>       0.00408163 </v>
   <v>       0.00408163 </v>
   <v>       0.00408163 </v>
   <v>       0.00408163 </v>
   <v>       0.00408163 </v>
   <v>       0.00408163 </v>
   <v>       0.00408163 </v>
   <v>       0.00408163 </v>
   <v>       0.00408163 </v>
   <v>       0.00408163 </v>
   <v>       0.00408163 </v>
   <v>       0.00408163 </v>
   <v>       0.00408163 </v>
   <v>       0.00408163 </v>
   <v>       0.00408163 </v>
   <v>       0.00408163 </v>
   <v>       0.00408163 </v>
   <v>       0.00408163 </v>
   <v>       0.00408163 </v>
   <v>       0.00408163 </v>
   <v>       0.00408163 </v>
   <v>       0.00408163 </v>
   <v>       0.00408163 </v>
   <v>       0.00408163 </v>
   <v>       0.00408163 </v>
   <v>       0.00408163 </v>
   <v>       0.00408163 </v>
   <v>       0.00408163 </v>
   <v>       0.00408163 </v>
   <v>       0.00408163 </v>
   <v>       0.00408163 </v>
   <v>       0.00408163 </v>
   <v>       0.00408163 </v>
   <v>       0.00408163 </v>
   <v>       0.00408163 </v>
   <v>       0.00408163 </v>
   <v>       0.00408163 </v>
   <v>       0.00408163 </v>
   <v>       0.00408163 </v>
   <v>       0.00408163 </v>
   <v>       0.00408163 </v>
   <v>       0.00408163 </v>
   <v>       0.00408163 </v>
   <v>       0.00408163 </v>
   <v>       0.00408163 </v>
   <v>       0.00408163 </v>
   <v>       0.00408163 </v>
   <v>       0.00408163 </v>
   <v>       0.00408163 </v>
   <v>       0.00408163 </v>
   <v>       0.00408163 </v>
   <v>       0.00408163 </v>
   <v>       0.00408163 </v>
   <v>       0.00408163 </v>
   <v>       0.00408163 </v>
   <v>       0.00408163 </v>
   <v>       0.00408163 </v>
   <v>       0.00408163 </v>
   <v>       0.00408163 </v>
   <v>       0.00408163 </v>
   <v>       0.00408163 </v>
   <v>       0.00408163 </v>
   <v>       0.00408163 </v>
   <v>       0.00408163 </v>
   <v>       0.00408163 </v>
   <v>       0.00408163 </v>
   <v>       0.00408163 </v>
   <v>       0.00408163 </v>
   <v>       0.00408163 </v>
   <v>       0.00408163 </v>
   <v>       0.00408163 </v>
   <v>       0.00408163 </v>
   <v>       0.00408163 </v>
   <v>       0.00408163 </v>
   <v>       0.00408163 </v>
   <v>       0.00408163 </v>
   <v>       0.00408163 </v>
   <v>       0.00408163 </v>
   <v>       0.00408163 </v>
   <v>       0.00408163 </v>
   <v>       0.00408163 </v>
   <v>       0.00408163 </v>
   <v>       0.00408163 </v>
   <v>       0.00408163 </v>
   <v>       0.00408163 </v>
   <v>       0.00408163 </v>
   <v>       0.00408163 </v>
   <v>       0.00408163 </v>
   <v>       0.00408163 </v>
   <v>       0.00408163 </v>
   <v>       0.00408163 </v>
   <v>       0.00408163 </v>
   <v>       0.00408163 </v>
   <v>       0.00408163 </v>
   <v>       0.00408163 </v>
   <v>       0.00408163 </v>
   <v>       0.00408163 </v>
   <v>       0.00408163 </v>
   <v>       0.00408163 </v>
   <v>       0.00408163 </v>
   <v>       0.00408163 </v>
   <v>       0.00408163 </v>
   <v>       0.00408163 </v>
  </varray>
 </kpoints>
 <parameters>
  <separator name="general" >
   <i type="string" name="SYSTEM">Ga2BiAs</i>
   <i type="logical" name="LCOMPAT"> F  </i>
  </separator>
  <separator name="electronic" >
   <i type="string" name="PREC">accura</i>
   <i name="ENMAX">    500.00000000</i>
   <i name="ENAUG">    462.75800000</i>
   <i name="EDIFF">      0.00000100</i>
   <i type="int" name="IALGO">    38</i>
   <i type="int" name="IWAVPR">    10</i>
   <i type="int" name="NBANDS">    48</i>
   <i name="NELECT">     26.00000000</i>
   <i type="int" name="TURBO">     0</i>
   <i type="int" name="IRESTART">     0</i>
   <i type="int" name="NREBOOT">     0</i>
   <i type="int" name="NMIN">     0</i>
   <i name="EREF">      0.00000000</i>
   <separator name="electronic smearing" >
    <i type="int" name="ISMEAR">     1</i>
    <i name="SIGMA">      0.20000000</i>
    <i name="KSPACING">      0.50000000</i>
    <i type="logical" name="KGAMMA"> T  </i>
   </separator>
   <separator name="electronic projectors" >
    <i type="logical" name="LREAL"> F  </i>
    <v name="ROPT">      0.00000000      0.00000000      0.00000000</v>
    <i type="int" name="LMAXPAW">  -100</i>
    <i type="int" name="LMAXMIX">     2</i>
    <i type="logical" name="NLSPLINE"> F  </i>
   </separator>
   <separator name="electronic startup" >
    <i type="int" name="ISTART">     0</i>
    <i type="int" name="ICHARG">     2</i>
    <i type="int" name="INIWAV">     1</i>
   </separator>
   <separator name="electronic spin" >
    <i type="int" name="ISPIN">     1</i>
    <i type="logical" name="LNONCOLLINEAR"> T  </i>
    <v name="MAGMOM">      1.00000000      1.00000000      1.00000000      1.00000000      1.00000000      1.00000000      1.00000000      1.00000000      1.00000000      1.00000000      1.00000000      1.00000000</v>
    <i name="NUPDOWN">     -1.00000000</i>
    <i type="logical" name="LSORBIT"> T  </i>
    <v name="SAXIS">      0.00000000      0.00000000      1.00000000</v>
    <i type="logical" name="LSPIRAL"> F  </i>
    <v name="QSPIRAL">      0.00000000      0.00000000      0.00000000</v>
    <i type="logical" name="LZEROZ"> F  </i>
   </separator>
   <separator name="electronic exchange-correlation" >
    <i type="logical" name="LASPH"> F  </i>
    <i type="logical" name="LMETAGGA"> F  </i>
   </separator>
   <separator name="electronic convergence" >
    <i type="int" name="NELM">    60</i>
    <i type="int" name="NELMDL">    -5</i>
    <i type="int" name="NELMIN">     2</i>
    <i name="ENINI">    500.00000000</i>
    <separator name="electronic convergence detail" >
     <i type="logical" name="LDIAG"> T  </i>
     <i type="logical" name="LSUBROT"> F  </i>
     <i name="WEIMIN">      0.00000000</i>
     <i name="EBREAK">      0.00000001</i>
     <i name="DEPER">      0.30000000</i>
     <i type="int" name="NRMM">     4</i>
     <i name="TIME">      0.40000000</i>
    </separator>
   </separator>
   <separator name="electronic mixer" >
    <i name="AMIX">      0.40000000</i>
    <i name="BMIX">      1.00000000</i>
    <i name="AMIN">      0.10000000</i>
    <i name="AMIX_MAG">      1.60000000</i>
    <i name="BMIX_MAG">      1.00000000</i>
    <separator name="electronic mixer details" >
     <i type="int" name="IMIX">     4</i>
     <i type="logical" name="MIXFIRST"> F  </i>
     <i type="int" name="MAXMIX">   -45</i>
     <i name="WC">    100.00000000</i>
     <i type="int" name="INIMIX">     1</i>
     <i type="int" name="MIXPRE">     1</i>
     <i type="int" name="MREMOVE">     5</i>
    </separator>
   </separator>
   <separator name="electronic dipolcorrection" >
    <i type="logical" name="LDIPOL"> F  </i>
    <i type="logical" name="LMONO"> F  </i>
    <i type="int" name="IDIPOL">     0</i>
    <i name="EPSILON">      1.00000000</i>
    <v name="DIPOL">   -100.00000000   -100.00000000   -100.00000000</v>
    <i name="EFIELD">      0.00000000</i>
   </separator>
  </separator>
  <separator name="grids" >
   <i type="int" name="NGX">    32</i>
   <i type="int" name="NGY">    32</i>
   <i type="int" name="NGZ">    48</i>
   <i type="int" name="NGXF">    64</i>
   <i type="int" name="NGYF">    64</i>
   <i type="int" name="NGZF">    96</i>
   <i type="logical" name="ADDGRID"> F  </i>
  </separator>
  <separator name="ionic" >
   <i type="int" name="NSW">     0</i>
   <i type="int" name="IBRION">    -1</i>
   <i type="int" name="MDALGO">     0</i>
   <i type="int" name="ISIF">     2</i>
   <i name="PSTRESS">      0.00000000</i>
   <i name="EDIFFG">     -0.01000000</i>
   <i type="int" name="NFREE">     0</i>
   <i name="POTIM">      0.50000000</i>
   <i name="SMASS">     -3.00000000</i>
   <i name="SCALEE">      1.00000000</i>
  </separator>
  <separator name="ionic md" >
   <i name="TEBEG">      0.00010000</i>
   <i name="TEEND">      0.00010000</i>
   <i type="int" name="NBLOCK">     1</i>
   <i type="int" name="KBLOCK">     1</i>
   <i type="int" name="NPACO">   256</i>
   <i name="APACO">     16.00000000</i>
  </separator>
  <separator name="symmetry" >
   <i type="int" name="ISYM">     2</i>
   <i name="SYMPREC">      0.00001000</i>
  </separator>
  <separator name="dos" >
   <i type="int" name="LORBIT">     0</i>
   <v name="RWIGS">     -1.00000000     -1.00000000     -1.00000000</v>
   <i type="int" name="NEDOS">   301</i>
   <i name="EMIN">     10.00000000</i>
   <i name="EMAX">    -10.00000000</i>
   <i name="EFERMI">      0.00000000</i>
  </separator>
  <separator name="writing" >
   <i type="int" name="NWRITE">     2</i>
   <i type="logical" name="LWAVE"> T  </i>
   <i type="logical" name="LDOWNSAMPLE"> F  </i>
   <i type="logical" name="LCHARG"> T  </i>
   <i type="logical" name="LPARD"> F  </i>
   <i type="logical" name="LVTOT"> F  </i>
   <i type="logical" name="LVHAR"> F  </i>
   <i type="logical" name="LELF"> F  </i>
   <i type="logical" name="LOPTICS"> F  </i>
   <v name="STM">      0.00000000      0.00000000      0.00000000      0.00000000      0.00000000      0.00000000      0.00000000</v>
  </separator>
  <separator name="performance" >
   <i type="int" name="NPAR">     4</i>
   <i type="int" name="NSIM">     4</i>
   <i type="int" name="NBLK">    -1</i>
   <i type="logical" name="LPLANE"> T  </i>
   <i type="logical" name="LSCALAPACK"> T  </i>
   <i type="logical" name="LSCAAWARE"> F  </i>
   <i type="logical" name="LSCALU"> F  </i>
   <i type="logical" name="LASYNC"> F  </i>
   <i type="logical" name="LORBITALREAL"> F  </i>
  </separator>
  <separator name="miscellaneous" >
   <i type="int" name="IDIOT">     3</i>
   <i type="int" name="ISPECIAL">     0</i>
   <i type="logical" name="LMUSIC"> F  </i>
   <v name="POMASS">     69.72300000    208.98000000     74.92200000</v>
   <v name="DARWINR">      0.00000000      0.00000000      0.00000000</v>
   <v name="DARWINV">      1.00000000      1.00000000      1.00000000</v>
   <i type="logical" name="LCORR"> T  </i>
  </separator>
  <i type="logical" name="GGA_COMPAT"> T  </i>
  <i type="logical" name="LBERRY"> F  </i>
  <i type="int" name="ICORELEVEL">     0</i>
  <i type="logical" name="LDAU"> F  </i>
  <i type="int" name="I_CONSTRAINED_M">     0</i>
  <separator name="electronic exchange-correlation" >
   <i type="string" name="GGA">--</i>
   <i type="int" name="VOSKOWN">     0</i>
   <i type="logical" name="LHFCALC"> F  </i>
   <i type="string" name="PRECFOCK"></i>
   <i type="logical" name="LSYMGRAD"> F  </i>
   <i type="logical" name="LHFONE"> F  </i>
   <i type="logical" name="LRHFCALC"> F  </i>
   <i type="logical" name="LTHOMAS"> F  </i>
   <i type="logical" name="LMODELHF"> F  </i>
   <i name="ENCUT4O">     -1.00000000</i>
   <i type="int" name="EXXOEP">     0</i>
   <i type="int" name="FOURORBIT">     0</i>
   <i name="AEXX">      0.00000000</i>
   <i name="HFALPHA">      0.00000000</i>
   <i name="MCALPHA">      0.00000000</i>
   <i name="ALDAX">      1.00000000</i>
   <i name="AGGAX">      1.00000000</i>
   <i name="ALDAC">      1.00000000</i>
   <i name="AGGAC">      1.00000000</i>
   <i type="int" name="NKREDX">     1</i>
   <i type="int" name="NKREDY">     1</i>
   <i type="int" name="NKREDZ">     1</i>
   <i type="logical" name="SHIFTRED"> F  </i>
   <i type="logical" name="ODDONLY"> F  </i>
   <i type="logical" name="EVENONLY"> F  </i>
   <i type="int" name="LMAXFOCK">     0</i>
   <i type="int" name="NMAXFOCKAE">     0</i>
   <i type="logical" name="LFOCKAEDFT"> F  </i>
   <i name="HFSCREEN">      0.00000000</i>
   <i name="HFSCREENC">      0.00000000</i>
   <i type="int" name="NBANDSGWLOW">     0</i>
  </separator>
  <separator name="vdW DFT" >
   <i type="logical" name="LUSE_VDW"> F  </i>
   <i name="Zab_VDW">     -0.84910000</i>
   <i name="PARAM1">      0.12340000</i>
   <i name="PARAM2">      1.00000000</i>
   <i name="PARAM3">      0.00000000</i>
  </separator>
  <separator name="model GW" >
   <i type="int" name="MODEL_GW">     0</i>
   <i name="MODEL_EPS0">     17.04666266</i>
   <i name="MODEL_ALPHA">      1.00000000</i>
  </separator>
  <separator name="linear response parameters" >
   <i type="logical" name="LEPSILON"> F  </i>
   <i type="logical" name="LRPA"> F  </i>
   <i type="logical" name="LNABLA"> F  </i>
   <i type="logical" name="LVEL"> F  </i>
   <i type="int" name="KINTER">     0</i>
   <i name="CSHIFT">      0.10000000</i>
   <i name="OMEGAMAX">     -1.00000000</i>
   <i name="DEG_THRESHOLD">      0.00200000</i>
   <i name="RTIME">     -0.10000000</i>
   <i name="WPLASMAI">      0.00000000</i>
   <v name="DFIELD">      0.00000000      0.00000000      0.00000000</v>
   <v name="WPLASMA">      0.00000000      0.00000000      0.00000000      0.00000000      0.00000000      0.00000000      0.00000000      0.00000000      0.00000000</v>
  </separator>
  <separator name="orbital magnetization" >
   <i type="logical" name="NUCIND"> F  </i>
   <v name="MAGPOS">      0.00000000      0.00000000      0.00000000</v>
   <i type="logical" name="LNICSALL"> T  </i>
   <i type="logical" name="ORBITALMAG"> F  </i>
   <i type="logical" name="LMAGBLOCH"> F  </i>
   <i type="logical" name="LCHIMAG"> F  </i>
   <i type="logical" name="LGAUGE"> T  </i>
   <i type="int" name="MAGATOM">     0</i>
   <v name="MAGDIPOL">      0.00000000      0.00000000      0.00000000</v>
   <v name="AVECCONST">      0.00000000      0.00000000      0.00000000</v>
  </separator>
  <separator name="response functions" >
   <i type="logical" name="LADDER"> F  </i>
   <i type="logical" name="LRPAFORCE"> F  </i>
   <i type="logical" name="LFXC"> F  </i>
   <i type="logical" name="LHARTREE"> T  </i>
   <i type="int" name="IBSE">     0</i>
   <v type="int" name="KPOINT">    -1     0     0     0</v>
   <i type="logical" name="LTCTE"> F  </i>
   <i type="logical" name="LTETE"> F  </i>
   <i type="logical" name="LTRIPLET"> F  </i>
   <i type="logical" name="LFXCEPS"> F  </i>
   <i type="logical" name="LFXHEG"> F  </i>
   <i type="int" name="NATURALO">     2</i>
   <i type="logical" name="L2ORDER"> F  </i>
   <i type="logical" name="LMP2LT"> F  </i>
   <i type="logical" name="LUSEW"> F  </i>
   <i name="ENCUTGW">     -2.00000000</i>
   <i name="ENCUTGWSOFT">     -2.00000000</i>
   <i name="ENCUTLF">     -1.00000000</i>
   <i type="int" name="LMAXMP2">    -1</i>
   <i name="SCISSOR">      0.00000000</i>
   <i type="int" name="NOMEGA">     0</i>
   <i type="int" name="NOMEGAR">     0</i>
   <i type="int" name="NBANDSGW">    -1</i>
   <i type="int" name="NBANDSO">    -1</i>
   <i type="int" name="NBANDSV">    -1</i>
   <i type="int" name="NELM">     1</i>
   <i type="int" name="NELMHF">     1</i>
   <i type="int" name="DIM">     3</i>
   <i type="int" name="ANTIRES">     0</i>
   <i name="OMEGAMAX">    -30.00000000</i>
   <i name="OMEGAMIN">    -30.00000000</i>
   <i name="OMEGATL">   -200.00000000</i>
   <i type="int" name="OMEGAGRID">   140</i>
   <i name="CSHIFT">     -0.10000000</i>
   <i type="logical" name="SELFENERGY"> F  </i>
   <i type="logical" name="LSPECTRAL"> F  </i>
   <i type="logical" name="LSPECTRALGW"> F  </i>
   <i type="logical" name="LSINGLES"> F  </i>
   <i type="logical" name="LFERMIGW"> F  </i>
   <i type="logical" name="ODDONLYGW"> F  </i>
   <i type="logical" name="EVENONLYGW"> F  </i>
   <i type="int" name="NKREDLFX">     1</i>
   <i type="int" name="NKREDLFY">     1</i>
   <i type="int" name="NKREDLFZ">     1</i>
   <i type="int" name="MAXMEM">  2800</i>
   <i type="int" name="TELESCOPE">     0</i>
   <i type="int" name="TAUPAR">     1</i>
   <i type="int" name="OMEGAPAR">    -1</i>
   <i name="LAMBDA">      1.00000000</i>
  </separator>
  <separator name="External order field" >
   <i name="OFIELD_KAPPA">      0.00000000</i>
   <v name="OFIELD_K">      0.00000000      0.00000000      0.00000000</v>
   <i name="OFIELD_Q6_NEAR">      0.00000000</i>
   <i name="OFIELD_Q6_FAR">      0.00000000</i>
   <i name="OFIELD_A">      0.00000000</i>
  </separator>
 </parameters>
 <atominfo>
  <atoms>       4 </atoms>
  <types>       3 </types>
  <array name="atoms" >
   <dimension dim="1">ion</dimension>
   <field type="string">element</field>
   <field type="int">atomtype</field>
   <set>
    <rc><c>Ga</c><c>   1</c></rc>
    <rc><c>Ga</c><c>   1</c></rc>
    <rc><c>Bi</c><c>   2</c></rc>
    <rc><c>As</c><c>   3</c></rc>
   </set>
  </array>
  <array name="atomtypes" >
   <dimension dim="1">type</dimension>
   <field type="int">atomspertype</field>
   <field type="string">element</field>
   <field>mass</field>
   <field>valence</field>
   <field type="string">pseudopotential</field>
   <set>
    <rc><c>   2</c><c>Ga</c><c>     69.72300000</c><c>      3.00000000</c><c>  PAW_PBE Ga 08Apr2002                  </c></rc>
    <rc><c>   1</c><c>Bi</c><c>    208.98000000</c><c>     15.00000000</c><c>  PAW_PBE Bi_d 06Sep2000                </c></rc>
    <rc><c>   1</c><c>As</c><c>     74.92200000</c><c>      5.00000000</c><c>  PAW_PBE As 22Sep2009                  </c></rc>
   </set>
  </array>
 </atominfo>
 <structure name="initialpos" >
  <crystal>
   <varray name="basis" >
    <v>       4.30014086       0.00000000       0.00000000 </v>
    <v>       0.00000000       4.30014086       0.00000000 </v>
    <v>       0.00000000       0.00000000       6.14586115 </v>
   </varray>
   <i name="volume">    113.64441771 </i>
   <varray name="rec_basis" >
    <v>       0.23255052       0.00000000       0.00000000 </v>
    <v>       0.00000000       0.23255052       0.00000000 </v>
    <v>       0.00000000       0.00000000       0.16271113 </v>
   </varray>
  </crystal>
  <varray name="positions" >
   <v>       0.50000000       0.00000000       0.72573602 </v>
   <v>       0.00000000       0.50000000       0.27426400 </v>
   <v>       0.00000000       0.00000000       0.00000000 </v>
   <v>       0.50000000       0.50000000       0.50000000 </v>
  </varray>
 </structure>
 <calculation>
  <scstep>
   <time name="dav">   49.77   93.66</time>
   <time name="total">   50.03   94.32</time>
   <energy>
    <i name="alphaZ">     64.20128509 </i>
    <i name="ewald">  -1439.91766544 </i>
    <i name="hartreedc">   -749.41397116 </i>
    <i name="XCdc">     -0.63881372 </i>
    <i name="pawpsdc">   1945.46521363 </i>
    <i name="pawaedc">  -1846.94975616 </i>
    <i name="eentropy">      0.00069541 </i>
    <i name="bandstr">    -10.62003985 </i>
    <i name="atom">   2247.12322143 </i>
    <i name="e_fr_energy">    209.25016922 </i>
    <i name="e_wo_entrp">    209.24947382 </i>
    <i name="e_0_energy">    209.24993742 </i>
   </energy>
  </scstep>
  <scstep>
   <time name="dav">   48.57   92.81</time>
   <time name="total">   48.58   92.84</time>
   <energy>
    <i name="e_fr_energy">      9.31021441 </i>
    <i name="e_wo_entrp">      9.30854757 </i>
    <i name="e_0_energy">      9.30965880 </i>
   </energy>
  </scstep>
  <scstep>
   <time name="dav">   48.26   98.31</time>
   <time name="total">   48.27   98.33</time>
   <energy>
    <i name="e_fr_energy">    -12.77105608 </i>
    <i name="e_wo_entrp">    -12.77230085 </i>
    <i name="e_0_energy">    -12.77147100 </i>
   </energy>
  </scstep>
  <scstep>
   <time name="dav">   53.17  101.13</time>
   <time name="total">   53.18  101.15</time>
   <energy>
    <i name="e_fr_energy">    -13.62290622 </i>
    <i name="e_wo_entrp">    -13.62489719 </i>
    <i name="e_0_energy">    -13.62356988 </i>
   </energy>
  </scstep>
  <scstep>
   <time name="dav">   57.14  113.35</time>
   <time name="total">   58.50  116.11</time>
   <energy>
    <i name="e_fr_energy">    -13.65987757 </i>
    <i name="e_wo_entrp">    -13.66187924 </i>
    <i name="e_0_energy">    -13.66054479 </i>
   </energy>
  </scstep>
  <scstep>
   <time name="dav">   52.80  106.80</time>
   <time name="total">   54.09  110.19</time>
   <energy>
    <i name="e_fr_energy">    -15.34629989 </i>
    <i name="e_wo_entrp">    -15.34845015 </i>
    <i name="e_0_energy">    -15.34701664 </i>
   </energy>
  </scstep>
  <scstep>
   <time name="dav">   51.86   98.36</time>
   <time name="total">   53.08  101.34</time>
   <energy>
    <i name="e_fr_energy">    -15.61661925 </i>
    <i name="e_wo_entrp">    -15.61476890 </i>
    <i name="e_0_energy">    -15.61600247 </i>
   </energy>
  </scstep>
  <scstep>
   <time name="dav">   52.02  103.52</time>
   <time name="total">   53.27  106.44</time>
   <energy>
    <i name="e_fr_energy">    -15.63304064 </i>
    <i name="e_wo_entrp">    -15.63060928 </i>
    <i name="e_0_energy">    -15.63223019 </i>
   </energy>
  </scstep>
  <scstep>
   <time name="dav">   51.72   98.19</time>
   <time name="total">   52.99  101.12</time>
   <energy>
    <i name="e_fr_energy">    -15.63168714 </i>
    <i name="e_wo_entrp">    -15.62931032 </i>
    <i name="e_0_energy">    -15.63089486 </i>
   </energy>
  </scstep>
  <scstep>
   <time name="dav">   50.32   94.79</time>
   <time name="total">   51.56   97.84</time>
   <energy>
    <i name="e_fr_energy">    -15.63313787 </i>
    <i name="e_wo_entrp">    -15.63070902 </i>
    <i name="e_0_energy">    -15.63232826 </i>
   </energy>
  </scstep>
  <scstep>
   <time name="dav">   50.88   97.51</time>
   <time name="total">   52.05  100.42</time>
   <energy>
    <i name="e_fr_energy">    -15.63366210 </i>
    <i name="e_wo_entrp">    -15.63122137 </i>
    <i name="e_0_energy">    -15.63284852 </i>
   </energy>
  </scstep>
  <scstep>
   <time name="dav">   49.67  100.54</time>
   <time name="total">   50.83  103.46</time>
   <energy>
    <i name="e_fr_energy">    -15.63382767 </i>
    <i name="e_wo_entrp">    -15.63138300 </i>
    <i name="e_0_energy">    -15.63301278 </i>
   </energy>
  </scstep>
  <scstep>
   <time name="dav">   50.55   95.77</time>
   <time name="total">   51.79   98.83</time>
   <energy>
    <i name="e_fr_energy">    -15.63387558 </i>
    <i name="e_wo_entrp">    -15.63143029 </i>
    <i name="e_0_energy">    -15.63306049 </i>
   </energy>
  </scstep>
  <scstep>
   <time name="dav">   51.60   97.84</time>
   <time name="total">   52.92  101.01</time>
   <energy>
    <i name="e_fr_energy">    -15.63388056 </i>
    <i name="e_wo_entrp">    -15.63143570 </i>
    <i name="e_0_energy">    -15.63306560 </i>
   </energy>
  </scstep>
  <scstep>
   <time name="dav">   47.41   91.05</time>
   <time name="total">   48.56   93.92</time>
   <energy>
    <i name="e_fr_energy">    -15.63388214 </i>
    <i name="e_wo_entrp">    -15.63143753 </i>
    <i name="e_0_energy">    -15.63306727 </i>
   </energy>
  </scstep>
  <scstep>
   <time name="dav">   65.67  130.77</time>
   <time name="total">   65.81  131.55</time>
   <energy>
    <i name="alphaZ">     64.20128509 </i>
    <i name="ewald">  -1439.91766544 </i>
    <i name="hartreedc">   -754.60604910 </i>
    <i name="XCdc">     -0.91647577 </i>
    <i name="pawpsdc">   2401.19553740 </i>
    <i name="pawaedc">  -2306.80066312 </i>
    <i name="eentropy">     -0.00244466 </i>
    <i name="bandstr">   -225.91062824 </i>
    <i name="atom">   2247.12322143 </i>
    <i name="e_fr_energy">    -15.63388243 </i>
    <i name="e_wo_entrp">    -15.63143777 </i>
    <i name="e_0_energy">    -15.63306754 </i>
   </energy>
  </scstep>
  <structure>
   <crystal>
    <varray name="basis" >
     <v>       4.30014086       0.00000000       0.00000000 </v>
     <v>       0.00000000       4.30014086       0.00000000 </v>
     <v>       0.00000000       0.00000000       6.14586115 </v>
    </varray>
    <i name="volume">    113.64441771 </i>
    <varray name="rec_basis" >
     <v>       0.23255052       0.00000000       0.00000000 </v>
     <v>       0.00000000       0.23255052       0.00000000 </v>
     <v>       0.00000000       0.00000000       0.16271113 </v>
    </varray>
   </crystal>
   <varray name="positions" >
    <v>       0.50000000       0.00000000       0.72573602 </v>
    <v>       0.00000000       0.50000000       0.27426400 </v>
    <v>       0.00000000       0.00000000       0.00000000 </v>
    <v>       0.50000000       0.50000000       0.50000000 </v>
   </varray>
  </structure>
  <varray name="forces" >
   <v>      -0.00000178       0.00000202      -0.06806800 </v>
   <v>      -0.00000159       0.00000224       0.06806763 </v>
   <v>       0.00000480      -0.00000613      -0.00000023 </v>
   <v>      -0.00000143       0.00000187       0.00000060 </v>
  </varray>
  <varray name="stress" >
   <v>       4.39311114      -0.00006305       0.00007570 </v>
   <v>      -0.00006298       4.39309381       0.00007684 </v>
   <v>       0.00007695       0.00007805       4.32315499 </v>
  </varray>
  <energy>
   <i name="e_fr_energy">    -15.63388243 </i>
   <i name="e_wo_entrp">    -15.63306754 </i>
   <i name="e_0_energy">     -0.00244466 </i>
  </energy>
  <time name="totalsc">  860.30 1681.95</time>
  <eigenvalues>
   <array>
    <dimension dim="1">band</dimension>
    <dimension dim="2">kpoint</dimension>
    <dimension dim="3">spin</dimension>
    <field>eigene</field>
    <field>occ</field>
    <set>
     <set comment="spin 1">
      <set comment="kpoint 1">
       <r>  -20.9120    1.0000 </r>
       <r>  -20.9120    1.0000 </r>
       <r>  -20.9099    1.0000 </r>
       <r>  -20.9099    1.0000 </r>
       <r>  -17.9694    1.0000 </r>
       <r>  -17.9694    1.0000 </r>
       <r>  -17.9499    1.0000 </r>
       <r>  -17.9499    1.0000 </r>
       <r>  -17.9417    1.0000 </r>
       <r>  -17.9417    1.0000 </r>
       <r>   -9.1504    1.0000 </r>
       <r>   -9.1504    1.0000 </r>
       <r>   -7.3975    1.0000 </r>
       <r>   -7.3975    1.0000 </r>
       <r>   -3.5585    1.0000 </r>
       <r>   -3.5585    1.0000 </r>
       <r>    0.2791    1.0000 </r>
       <r>    0.2791    1.0000 </r>
       <r>    0.5680    1.0000 </r>
       <r>    0.5681    1.0000 </r>
       <r>    1.8524    1.0000 </r>
       <r>    1.8524    1.0000 </r>
       <r>    2.1674    1.0000 </r>
       <r>    2.1674    1.0000 </r>
       <r>    3.3229    0.0427 </r>
       <r>    3.3229    0.0427 </r>
       <r>    3.6240   -0.0040 </r>
       <r>    3.6240   -0.0040 </r>
       <r>    4.1705   -0.0000 </r>
       <r>    4.1705   -0.0000 </r>
       <r>    4.3913   -0.0000 </r>
       <r>    4.3914   -0.0000 </r>
       <r>    6.0596   -0.0000 </r>
       <r>    6.0596   -0.0000 </r>
       <r>    6.2755   -0.0000 </r>
       <r>    6.2755   -0.0000 </r>
       <r>    6.4151   -0.0000 </r>
       <r>    6.4151   -0.0000 </r>
       <r>    8.8914    0.0000 </r>
       <r>    8.8915    0.0000 </r>
       <r>   11.1466    0.0000 </r>
       <r>   11.1466    0.0000 </r>
       <r>   11.5922    0.0000 </r>
       <r>   11.5922    0.0000 </r>
       <r>   12.0716    0.0000 </r>
       <r>   12.0717    0.0000 </r>
       <r>   12.1914    0.0000 </r>
       <r>   12.1933    0.0000 </r>
      </set>
      <set comment="kpoint 2">
       <r>  -20.9129    1.0000 </r>
       <r>  -20.9120    1.0000 </r>
       <r>  -20.9100    1.0000 </r>
       <r>  -20.9081    1.0000 </r>
       <r>  -17.9708    1.0000 </r>
       <r>  -17.9662    1.0000 </r>
       <r>  -17.9506    1.0000 </r>
       <r>  -17.9492    1.0000 </r>
       <r>  -17.9424    1.0000 </r>
       <r>  -17.9410    1.0000 </r>
       <r>   -9.0323    1.0000 </r>
       <r>   -9.0321    1.0000 </r>
       <r>   -7.3945    1.0000 </r>
       <r>   -7.3905    1.0000 </r>
       <r>   -3.5541    1.0000 </r>
       <r>   -3.4598    1.0000 </r>
       <r>   -0.2740    1.0000 </r>
       <r>   -0.1097    1.0000 </r>
       <r>    0.4675    1.0000 </r>
       <r>    0.5103    1.0000 </r>
       <r>    0.7891    1.0000 </r>
       <r>    0.9220    1.0000 </r>
       <r>    2.0637    1.0000 </r>
       <r>    2.4069    1.0000 </r>
       <r>    3.0696    0.9081 </r>
       <r>    3.2157    0.3691 </r>
       <r>    3.7264   -0.0004 </r>
       <r>    3.7626   -0.0002 </r>
       <r>    4.4670   -0.0000 </r>
       <r>    4.5429   -0.0000 </r>
       <r>    5.2836   -0.0000 </r>
       <r>    5.3264   -0.0000 </r>
       <r>    6.1323   -0.0000 </r>
       <r>    6.2106   -0.0000 </r>
       <r>    6.3088   -0.0000 </r>
       <r>    6.3593   -0.0000 </r>
       <r>    6.9709   -0.0000 </r>
       <r>    7.1693   -0.0000 </r>
       <r>    9.6620    0.0000 </r>
       <r>    9.6777    0.0000 </r>
       <r>   10.2245    0.0000 </r>
       <r>   10.5076    0.0000 </r>
       <r>   10.6432    0.0000 </r>
       <r>   10.6904    0.0000 </r>
       <r>   11.4701    0.0000 </r>
       <r>   11.4879    0.0000 </r>
       <r>   11.6154    0.0000 </r>
       <r>   11.6766    0.0000 </r>
      </set>
      <set comment="kpoint 3">
       <r>  -20.9134    1.0000 </r>
       <r>  -20.9126    1.0000 </r>
       <r>  -20.9089    1.0000 </r>
       <r>  -20.9064    1.0000 </r>
       <r>  -17.9698    1.0000 </r>
       <r>  -17.9642    1.0000 </r>
       <r>  -17.9513    1.0000 </r>
       <r>  -17.9508    1.0000 </r>
       <r>  -17.9403    1.0000 </r>
       <r>  -17.9400    1.0000 </r>
       <r>   -8.6984    1.0000 </r>
       <r>   -8.6981    1.0000 </r>
       <r>   -7.4572    1.0000 </r>
       <r>   -7.4518    1.0000 </r>
       <r>   -3.4397    1.0000 </r>
       <r>   -3.2754    1.0000 </r>
       <r>   -1.0588    1.0000 </r>
       <r>   -1.0495    1.0000 </r>
       <r>   -0.6565    1.0000 </r>
       <r>   -0.1174    1.0000 </r>
       <r>    0.8092    1.0000 </r>
       <r>    0.8772    1.0000 </r>
       <r>    1.1612    1.0000 </r>
       <r>    1.5848    1.0000 </r>
       <r>    2.8040    1.0108 </r>
       <r>    2.9176    1.0339 </r>
       <r>    4.0615   -0.0000 </r>
       <r>    4.1077   -0.0000 </r>
       <r>    4.9244   -0.0000 </r>
       <r>    5.0912   -0.0000 </r>
       <r>    6.4542   -0.0000 </r>
       <r>    6.5322   -0.0000 </r>
       <r>    6.6965   -0.0000 </r>
       <r>    6.7515   -0.0000 </r>
       <r>    7.0956   -0.0000 </r>
       <r>    7.1501   -0.0000 </r>
       <r>    7.9975   -0.0000 </r>
       <r>    8.3079   -0.0000 </r>
       <r>    9.1234    0.0000 </r>
       <r>    9.3711    0.0000 </r>
       <r>    9.5426    0.0000 </r>
       <r>    9.6278    0.0000 </r>
       <r>   10.3249    0.0000 </r>
       <r>   10.5070    0.0000 </r>
       <r>   10.6560    0.0000 </r>
       <r>   10.7090    0.0000 </r>
       <r>   11.0974    0.0000 </r>
       <r>   11.1244    0.0000 </r>
      </set>
      <set comment="kpoint 4">
       <r>  -20.9134    1.0000 </r>
       <r>  -20.9131    1.0000 </r>
       <r>  -20.9072    1.0000 </r>
       <r>  -20.9060    1.0000 </r>
       <r>  -17.9675    1.0000 </r>
       <r>  -17.9651    1.0000 </r>
       <r>  -17.9524    1.0000 </r>
       <r>  -17.9522    1.0000 </r>
       <r>  -17.9382    1.0000 </r>
       <r>  -17.9379    1.0000 </r>
       <r>   -8.2279    1.0000 </r>
       <r>   -8.2270    1.0000 </r>
       <r>   -7.7255    1.0000 </r>
       <r>   -7.7224    1.0000 </r>
       <r>   -3.0807    1.0000 </r>
       <r>   -2.9260    1.0000 </r>
       <r>   -2.1939    1.0000 </r>
       <r>   -2.0937    1.0000 </r>
       <r>   -0.6078    1.0000 </r>
       <r>   -0.1261    1.0000 </r>
       <r>    0.1136    1.0000 </r>
       <r>    0.5675    1.0000 </r>
       <r>    1.1789    1.0000 </r>
       <r>    1.1907    1.0000 </r>
       <r>    2.5475    1.0000 </r>
       <r>    2.5858    1.0001 </r>
       <r>    4.3603   -0.0000 </r>
       <r>    4.3810   -0.0000 </r>
       <r>    5.3566   -0.0000 </r>
       <r>    5.4484   -0.0000 </r>
       <r>    7.1083   -0.0000 </r>
       <r>    7.1645   -0.0000 </r>
       <r>    7.3644   -0.0000 </r>
       <r>    7.4185   -0.0000 </r>
       <r>    7.5464   -0.0000 </r>
       <r>    7.5833   -0.0000 </r>
       <r>    7.9949   -0.0000 </r>
       <r>    8.2789   -0.0000 </r>
       <r>    8.5929   -0.0000 </r>
       <r>    8.6453    0.0000 </r>
       <r>    8.7329    0.0000 </r>
       <r>    8.8468    0.0000 </r>
       <r>   10.4835    0.0000 </r>
       <r>   10.5301    0.0000 </r>
       <r>   10.5933    0.0000 </r>
       <r>   10.6224    0.0000 </r>
       <r>   11.0668    0.0000 </r>
       <r>   11.1100    0.0000 </r>
      </set>
      <set comment="kpoint 5">
       <r>  -20.9134    1.0000 </r>
       <r>  -20.9131    1.0000 </r>
       <r>  -20.9072    1.0000 </r>
       <r>  -20.9060    1.0000 </r>
       <r>  -17.9675    1.0000 </r>
       <r>  -17.9651    1.0000 </r>
       <r>  -17.9524    1.0000 </r>
       <r>  -17.9522    1.0000 </r>
       <r>  -17.9382    1.0000 </r>
       <r>  -17.9379    1.0000 </r>
       <r>   -8.2279    1.0000 </r>
       <r>   -8.2270    1.0000 </r>
       <r>   -7.7255    1.0000 </r>
       <r>   -7.7224    1.0000 </r>
       <r>   -3.0807    1.0000 </r>
       <r>   -2.9260    1.0000 </r>
       <r>   -2.1938    1.0000 </r>
       <r>   -2.0938    1.0000 </r>
       <r>   -0.6077    1.0000 </r>
       <r>   -0.1262    1.0000 </r>
       <r>    0.1136    1.0000 </r>
       <r>    0.5675    1.0000 </r>
       <r>    1.1790    1.0000 </r>
       <r>    1.1906    1.0000 </r>
       <r>    2.5475    1.0000 </r>
       <r>    2.5858    1.0001 </r>
       <r>    4.3603   -0.0000 </r>
       <r>    4.3810   -0.0000 </r>
       <r>    5.3566   -0.0000 </r>
       <r>    5.4484   -0.0000 </r>
       <r>    7.1083   -0.0000 </r>
       <r>    7.1645   -0.0000 </r>
       <r>    7.3644   -0.0000 </r>
       <r>    7.4185   -0.0000 </r>
       <r>    7.5464   -0.0000 </r>
       <r>    7.5832   -0.0000 </r>
       <r>    7.9949   -0.0000 </r>
       <r>    8.2789   -0.0000 </r>
       <r>    8.5929   -0.0000 </r>
       <r>    8.6453    0.0000 </r>
       <r>    8.7330    0.0000 </r>
       <r>    8.8468    0.0000 </r>
       <r>   10.4835    0.0000 </r>
       <r>   10.5301    0.0000 </r>
       <r>   10.5933    0.0000 </r>
       <r>   10.6224    0.0000 </r>
       <r>   11.0668    0.0000 </r>
       <r>   11.1100    0.0000 </r>
      </set>
      <set comment="kpoint 6">
       <r>  -20.9134    1.0000 </r>
       <r>  -20.9126    1.0000 </r>
       <r>  -20.9089    1.0000 </r>
       <r>  -20.9064    1.0000 </r>
       <r>  -17.9698    1.0000 </r>
       <r>  -17.9642    1.0000 </r>
       <r>  -17.9513    1.0000 </r>
       <r>  -17.9508    1.0000 </r>
       <r>  -17.9403    1.0000 </r>
       <r>  -17.9400    1.0000 </r>
       <r>   -8.6984    1.0000 </r>
       <r>   -8.6981    1.0000 </r>
       <r>   -7.4572    1.0000 </r>
       <r>   -7.4518    1.0000 </r>
       <r>   -3.4397    1.0000 </r>
       <r>   -3.2754    1.0000 </r>
       <r>   -1.0588    1.0000 </r>
       <r>   -1.0495    1.0000 </r>
       <r>   -0.6565    1.0000 </r>
       <r>   -0.1174    1.0000 </r>
       <r>    0.8092    1.0000 </r>
       <r>    0.8772    1.0000 </r>
       <r>    1.1612    1.0000 </r>
       <r>    1.5848    1.0000 </r>
       <r>    2.8040    1.0108 </r>
       <r>    2.9176    1.0339 </r>
       <r>    4.0616   -0.0000 </r>
       <r>    4.1076   -0.0000 </r>
       <r>    4.9244   -0.0000 </r>
       <r>    5.0911   -0.0000 </r>
       <r>    6.4543   -0.0000 </r>
       <r>    6.5322   -0.0000 </r>
       <r>    6.6965   -0.0000 </r>
       <r>    6.7515   -0.0000 </r>
       <r>    7.0956   -0.0000 </r>
       <r>    7.1501   -0.0000 </r>
       <r>    7.9975   -0.0000 </r>
       <r>    8.3080   -0.0000 </r>
       <r>    9.1234    0.0000 </r>
       <r>    9.3711    0.0000 </r>
       <r>    9.5426    0.0000 </r>
       <r>    9.6278    0.0000 </r>
       <r>   10.3249    0.0000 </r>
       <r>   10.5070    0.0000 </r>
       <r>   10.6560    0.0000 </r>
       <r>   10.7090    0.0000 </r>
       <r>   11.0974    0.0000 </r>
       <r>   11.1244    0.0000 </r>
      </set>
      <set comment="kpoint 7">
       <r>  -20.9129    1.0000 </r>
       <r>  -20.9120    1.0000 </r>
       <r>  -20.9100    1.0000 </r>
       <r>  -20.9081    1.0000 </r>
       <r>  -17.9708    1.0000 </r>
       <r>  -17.9662    1.0000 </r>
       <r>  -17.9506    1.0000 </r>
       <r>  -17.9492    1.0000 </r>
       <r>  -17.9424    1.0000 </r>
       <r>  -17.9410    1.0000 </r>
       <r>   -9.0323    1.0000 </r>
       <r>   -9.0321    1.0000 </r>
       <r>   -7.3945    1.0000 </r>
       <r>   -7.3905    1.0000 </r>
       <r>   -3.5541    1.0000 </r>
       <r>   -3.4598    1.0000 </r>
       <r>   -0.2740    1.0000 </r>
       <r>   -0.1097    1.0000 </r>
       <r>    0.4675    1.0000 </r>
       <r>    0.5103    1.0000 </r>
       <r>    0.7891    1.0000 </r>
       <r>    0.9220    1.0000 </r>
       <r>    2.0637    1.0000 </r>
       <r>    2.4069    1.0000 </r>
       <r>    3.0696    0.9081 </r>
       <r>    3.2157    0.3692 </r>
       <r>    3.7264   -0.0004 </r>
       <r>    3.7626   -0.0002 </r>
       <r>    4.4671   -0.0000 </r>
       <r>    4.5429   -0.0000 </r>
       <r>    5.2836   -0.0000 </r>
       <r>    5.3265   -0.0000 </r>
       <r>    6.1323   -0.0000 </r>
       <r>    6.2106   -0.0000 </r>
       <r>    6.3088   -0.0000 </r>
       <r>    6.3593   -0.0000 </r>
       <r>    6.9709   -0.0000 </r>
       <r>    7.1693   -0.0000 </r>
       <r>    9.6621    0.0000 </r>
       <r>    9.6776    0.0000 </r>
       <r>   10.2245    0.0000 </r>
       <r>   10.5076    0.0000 </r>
       <r>   10.6432    0.0000 </r>
       <r>   10.6904    0.0000 </r>
       <r>   11.4701    0.0000 </r>
       <r>   11.4879    0.0000 </r>
       <r>   11.6154    0.0000 </r>
       <r>   11.6766    0.0000 </r>
      </set>
      <set comment="kpoint 8">
       <r>  -20.9129    1.0000 </r>
       <r>  -20.9120    1.0000 </r>
       <r>  -20.9100    1.0000 </r>
       <r>  -20.9081    1.0000 </r>
       <r>  -17.9708    1.0000 </r>
       <r>  -17.9662    1.0000 </r>
       <r>  -17.9506    1.0000 </r>
       <r>  -17.9492    1.0000 </r>
       <r>  -17.9424    1.0000 </r>
       <r>  -17.9410    1.0000 </r>
       <r>   -9.0323    1.0000 </r>
       <r>   -9.0321    1.0000 </r>
       <r>   -7.3945    1.0000 </r>
       <r>   -7.3905    1.0000 </r>
       <r>   -3.5541    1.0000 </r>
       <r>   -3.4598    1.0000 </r>
       <r>   -0.2740    1.0000 </r>
       <r>   -0.1097    1.0000 </r>
       <r>    0.4675    1.0000 </r>
       <r>    0.5103    1.0000 </r>
       <r>    0.7891    1.0000 </r>
       <r>    0.9220    1.0000 </r>
       <r>    2.0637    1.0000 </r>
       <r>    2.4069    1.0000 </r>
       <r>    3.0696    0.9081 </r>
       <r>    3.2157    0.3691 </r>
       <r>    3.7264   -0.0004 </r>
       <r>    3.7626   -0.0002 </r>
       <r>    4.4670   -0.0000 </r>
       <r>    4.5429   -0.0000 </r>
       <r>    5.2836   -0.0000 </r>
       <r>    5.3264   -0.0000 </r>
       <r>    6.1323   -0.0000 </r>
       <r>    6.2106   -0.0000 </r>
       <r>    6.3088   -0.0000 </r>
       <r>    6.3593   -0.0000 </r>
       <r>    6.9709   -0.0000 </r>
       <r>    7.1693   -0.0000 </r>
       <r>    9.6620    0.0000 </r>
       <r>    9.6777    0.0000 </r>
       <r>   10.2245    0.0000 </r>
       <r>   10.5076    0.0000 </r>
       <r>   10.6432    0.0000 </r>
       <r>   10.6904    0.0000 </r>
       <r>   11.4701    0.0000 </r>
       <r>   11.4879    0.0000 </r>
       <r>   11.6154    0.0000 </r>
       <r>   11.6768    0.0000 </r>
      </set>
      <set comment="kpoint 9">
       <r>  -20.9134    1.0000 </r>
       <r>  -20.9123    1.0000 </r>
       <r>  -20.9094    1.0000 </r>
       <r>  -20.9072    1.0000 </r>
       <r>  -17.9711    1.0000 </r>
       <r>  -17.9645    1.0000 </r>
       <r>  -17.9507    1.0000 </r>
       <r>  -17.9485    1.0000 </r>
       <r>  -17.9431    1.0000 </r>
       <r>  -17.9407    1.0000 </r>
       <r>   -8.9153    1.0000 </r>
       <r>   -8.9151    1.0000 </r>
       <r>   -7.3802    1.0000 </r>
       <r>   -7.3749    1.0000 </r>
       <r>   -3.5363    1.0000 </r>
       <r>   -3.4068    1.0000 </r>
       <r>   -0.3067    1.0000 </r>
       <r>   -0.2367    1.0000 </r>
       <r>   -0.2040    1.0000 </r>
       <r>    0.0993    1.0000 </r>
       <r>    0.5178    1.0000 </r>
       <r>    0.5838    1.0000 </r>
       <r>    1.9437    1.0000 </r>
       <r>    1.9633    1.0000 </r>
       <r>    2.5291    1.0000 </r>
       <r>    2.6821    1.0011 </r>
       <r>    4.3763   -0.0000 </r>
       <r>    4.4106   -0.0000 </r>
       <r>    5.1162   -0.0000 </r>
       <r>    5.3623   -0.0000 </r>
       <r>    5.3782   -0.0000 </r>
       <r>    5.3851   -0.0000 </r>
       <r>    5.8136   -0.0000 </r>
       <r>    5.8220   -0.0000 </r>
       <r>    7.1547   -0.0000 </r>
       <r>    7.2843   -0.0000 </r>
       <r>    7.3692   -0.0000 </r>
       <r>    7.6518   -0.0000 </r>
       <r>    9.3176    0.0000 </r>
       <r>    9.4110    0.0000 </r>
       <r>    9.7550    0.0000 </r>
       <r>    9.9835    0.0000 </r>
       <r>   10.2308    0.0000 </r>
       <r>   10.2361    0.0000 </r>
       <r>   10.4047    0.0000 </r>
       <r>   10.4122    0.0000 </r>
       <r>   12.2834    0.0000 </r>
       <r>   12.3631    0.0000 </r>
      </set>
      <set comment="kpoint 10">
       <r>  -20.9139    1.0000 </r>
       <r>  -20.9126    1.0000 </r>
       <r>  -20.9083    1.0000 </r>
       <r>  -20.9056    1.0000 </r>
       <r>  -17.9702    1.0000 </r>
       <r>  -17.9632    1.0000 </r>
       <r>  -17.9513    1.0000 </r>
       <r>  -17.9491    1.0000 </r>
       <r>  -17.9414    1.0000 </r>
       <r>  -17.9393    1.0000 </r>
       <r>   -8.5859    1.0000 </r>
       <r>   -8.5856    1.0000 </r>
       <r>   -7.4132    1.0000 </r>
       <r>   -7.4072    1.0000 </r>
       <r>   -3.4581    1.0000 </r>
       <r>   -3.2841    1.0000 </r>
       <r>   -1.2484    1.0000 </r>
       <r>   -1.2313    1.0000 </r>
       <r>   -0.6343    1.0000 </r>
       <r>   -0.1387    1.0000 </r>
       <r>    0.3552    1.0000 </r>
       <r>    0.4603    1.0000 </r>
       <r>    1.1492    1.0000 </r>
       <r>    1.5415    1.0000 </r>
       <r>    1.9206    1.0000 </r>
       <r>    2.3221    1.0000 </r>
       <r>    4.6880   -0.0000 </r>
       <r>    4.8478   -0.0000 </r>
       <r>    5.3202   -0.0000 </r>
       <r>    5.3527   -0.0000 </r>
       <r>    5.7366   -0.0000 </r>
       <r>    5.9927   -0.0000 </r>
       <r>    7.2101   -0.0000 </r>
       <r>    7.3409   -0.0000 </r>
       <r>    7.7470   -0.0000 </r>
       <r>    7.8397   -0.0000 </r>
       <r>    8.0815   -0.0000 </r>
       <r>    8.1690   -0.0000 </r>
       <r>    8.3852   -0.0000 </r>
       <r>    8.6502    0.0000 </r>
       <r>    8.7278    0.0000 </r>
       <r>    8.7998    0.0000 </r>
       <r>    9.9561    0.0000 </r>
       <r>   10.0967    0.0000 </r>
       <r>   11.4356    0.0000 </r>
       <r>   11.6479    0.0000 </r>
       <r>   11.7610    0.0000 </r>
       <r>   11.9357    0.0000 </r>
      </set>
      <set comment="kpoint 11">
       <r>  -20.9142    1.0000 </r>
       <r>  -20.9129    1.0000 </r>
       <r>  -20.9069    1.0000 </r>
       <r>  -20.9051    1.0000 </r>
       <r>  -17.9687    1.0000 </r>
       <r>  -17.9641    1.0000 </r>
       <r>  -17.9525    1.0000 </r>
       <r>  -17.9498    1.0000 </r>
       <r>  -17.9392    1.0000 </r>
       <r>  -17.9372    1.0000 </r>
       <r>   -8.1279    1.0000 </r>
       <r>   -8.1269    1.0000 </r>
       <r>   -7.6433    1.0000 </r>
       <r>   -7.6400    1.0000 </r>
       <r>   -3.1541    1.0000 </r>
       <r>   -2.9981    1.0000 </r>
       <r>   -2.3416    1.0000 </r>
       <r>   -2.2496    1.0000 </r>
       <r>   -0.5083    1.0000 </r>
       <r>   -0.0374    1.0000 </r>
       <r>    0.1695    1.0000 </r>
       <r>    0.5896    1.0000 </r>
       <r>    0.7236    1.0000 </r>
       <r>    0.7835    1.0000 </r>
       <r>    1.6464    1.0000 </r>
       <r>    2.1163    1.0000 </r>
       <r>    5.0065   -0.0000 </r>
       <r>    5.1307   -0.0000 </r>
       <r>    5.7277   -0.0000 </r>
       <r>    5.7948   -0.0000 </r>
       <r>    5.8555   -0.0000 </r>
       <r>    6.1447   -0.0000 </r>
       <r>    6.7082   -0.0000 </r>
       <r>    7.0094   -0.0000 </r>
       <r>    7.5641   -0.0000 </r>
       <r>    7.6380   -0.0000 </r>
       <r>    7.8385   -0.0000 </r>
       <r>    7.9091   -0.0000 </r>
       <r>    8.8052    0.0000 </r>
       <r>    8.9378    0.0000 </r>
       <r>    9.6428    0.0000 </r>
       <r>    9.9124    0.0000 </r>
       <r>   10.3639    0.0000 </r>
       <r>   10.5200    0.0000 </r>
       <r>   11.5902    0.0000 </r>
       <r>   11.7393    0.0000 </r>
       <r>   11.9422    0.0000 </r>
       <r>   11.9886    0.0000 </r>
      </set>
      <set comment="kpoint 12">
       <r>  -20.9142    1.0000 </r>
       <r>  -20.9129    1.0000 </r>
       <r>  -20.9069    1.0000 </r>
       <r>  -20.9051    1.0000 </r>
       <r>  -17.9687    1.0000 </r>
       <r>  -17.9641    1.0000 </r>
       <r>  -17.9525    1.0000 </r>
       <r>  -17.9498    1.0000 </r>
       <r>  -17.9392    1.0000 </r>
       <r>  -17.9372    1.0000 </r>
       <r>   -8.1279    1.0000 </r>
       <r>   -8.1269    1.0000 </r>
       <r>   -7.6433    1.0000 </r>
       <r>   -7.6400    1.0000 </r>
       <r>   -3.1541    1.0000 </r>
       <r>   -2.9981    1.0000 </r>
       <r>   -2.3416    1.0000 </r>
       <r>   -2.2496    1.0000 </r>
       <r>   -0.5083    1.0000 </r>
       <r>   -0.0374    1.0000 </r>
       <r>    0.1695    1.0000 </r>
       <r>    0.5896    1.0000 </r>
       <r>    0.7236    1.0000 </r>
       <r>    0.7835    1.0000 </r>
       <r>    1.6464    1.0000 </r>
       <r>    2.1163    1.0000 </r>
       <r>    5.0065   -0.0000 </r>
       <r>    5.1307   -0.0000 </r>
       <r>    5.7277   -0.0000 </r>
       <r>    5.7948   -0.0000 </r>
       <r>    5.8555   -0.0000 </r>
       <r>    6.1447   -0.0000 </r>
       <r>    6.7082   -0.0000 </r>
       <r>    7.0094   -0.0000 </r>
       <r>    7.5641   -0.0000 </r>
       <r>    7.6380   -0.0000 </r>
       <r>    7.8385   -0.0000 </r>
       <r>    7.9092   -0.0000 </r>
       <r>    8.8052    0.0000 </r>
       <r>    8.9378    0.0000 </r>
       <r>    9.6428    0.0000 </r>
       <r>    9.9124    0.0000 </r>
       <r>   10.3639    0.0000 </r>
       <r>   10.5200    0.0000 </r>
       <r>   11.5902    0.0000 </r>
       <r>   11.7393    0.0000 </r>
       <r>   11.9422    0.0000 </r>
       <r>   11.9886    0.0000 </r>
      </set>
      <set comment="kpoint 13">
       <r>  -20.9139    1.0000 </r>
       <r>  -20.9126    1.0000 </r>
       <r>  -20.9083    1.0000 </r>
       <r>  -20.9056    1.0000 </r>
       <r>  -17.9702    1.0000 </r>
       <r>  -17.9632    1.0000 </r>
       <r>  -17.9513    1.0000 </r>
       <r>  -17.9491    1.0000 </r>
       <r>  -17.9414    1.0000 </r>
       <r>  -17.9393    1.0000 </r>
       <r>   -8.5859    1.0000 </r>
       <r>   -8.5856    1.0000 </r>
       <r>   -7.4132    1.0000 </r>
       <r>   -7.4072    1.0000 </r>
       <r>   -3.4581    1.0000 </r>
       <r>   -3.2841    1.0000 </r>
       <r>   -1.2484    1.0000 </r>
       <r>   -1.2313    1.0000 </r>
       <r>   -0.6343    1.0000 </r>
       <r>   -0.1387    1.0000 </r>
       <r>    0.3552    1.0000 </r>
       <r>    0.4603    1.0000 </r>
       <r>    1.1492    1.0000 </r>
       <r>    1.5415    1.0000 </r>
       <r>    1.9206    1.0000 </r>
       <r>    2.3221    1.0000 </r>
       <r>    4.6880   -0.0000 </r>
       <r>    4.8478   -0.0000 </r>
       <r>    5.3202   -0.0000 </r>
       <r>    5.3527   -0.0000 </r>
       <r>    5.7366   -0.0000 </r>
       <r>    5.9927   -0.0000 </r>
       <r>    7.2101   -0.0000 </r>
       <r>    7.3409   -0.0000 </r>
       <r>    7.7470   -0.0000 </r>
       <r>    7.8397   -0.0000 </r>
       <r>    8.0815   -0.0000 </r>
       <r>    8.1690   -0.0000 </r>
       <r>    8.3851   -0.0000 </r>
       <r>    8.6503    0.0000 </r>
       <r>    8.7278    0.0000 </r>
       <r>    8.7998    0.0000 </r>
       <r>    9.9561    0.0000 </r>
       <r>   10.0967    0.0000 </r>
       <r>   11.4356    0.0000 </r>
       <r>   11.6478    0.0000 </r>
       <r>   11.7610    0.0000 </r>
       <r>   11.9357    0.0000 </r>
      </set>
      <set comment="kpoint 14">
       <r>  -20.9134    1.0000 </r>
       <r>  -20.9123    1.0000 </r>
       <r>  -20.9094    1.0000 </r>
       <r>  -20.9072    1.0000 </r>
       <r>  -17.9711    1.0000 </r>
       <r>  -17.9645    1.0000 </r>
       <r>  -17.9507    1.0000 </r>
       <r>  -17.9485    1.0000 </r>
       <r>  -17.9431    1.0000 </r>
       <r>  -17.9407    1.0000 </r>
       <r>   -8.9153    1.0000 </r>
       <r>   -8.9151    1.0000 </r>
       <r>   -7.3802    1.0000 </r>
       <r>   -7.3749    1.0000 </r>
       <r>   -3.5363    1.0000 </r>
       <r>   -3.4068    1.0000 </r>
       <r>   -0.3067    1.0000 </r>
       <r>   -0.2367    1.0000 </r>
       <r>   -0.2040    1.0000 </r>
       <r>    0.0993    1.0000 </r>
       <r>    0.5178    1.0000 </r>
       <r>    0.5838    1.0000 </r>
       <r>    1.9437    1.0000 </r>
       <r>    1.9633    1.0000 </r>
       <r>    2.5291    1.0000 </r>
       <r>    2.6821    1.0011 </r>
       <r>    4.3763   -0.0000 </r>
       <r>    4.4106   -0.0000 </r>
       <r>    5.1162   -0.0000 </r>
       <r>    5.3623   -0.0000 </r>
       <r>    5.3782   -0.0000 </r>
       <r>    5.3851   -0.0000 </r>
       <r>    5.8136   -0.0000 </r>
       <r>    5.8220   -0.0000 </r>
       <r>    7.1547   -0.0000 </r>
       <r>    7.2843   -0.0000 </r>
       <r>    7.3692   -0.0000 </r>
       <r>    7.6518   -0.0000 </r>
       <r>    9.3176    0.0000 </r>
       <r>    9.4109    0.0000 </r>
       <r>    9.7550    0.0000 </r>
       <r>    9.9835    0.0000 </r>
       <r>   10.2308    0.0000 </r>
       <r>   10.2361    0.0000 </r>
       <r>   10.4046    0.0000 </r>
       <r>   10.4122    0.0000 </r>
       <r>   12.2838    0.0000 </r>
       <r>   12.3666    0.0000 </r>
      </set>
      <set comment="kpoint 15">
       <r>  -20.9134    1.0000 </r>
       <r>  -20.9126    1.0000 </r>
       <r>  -20.9089    1.0000 </r>
       <r>  -20.9064    1.0000 </r>
       <r>  -17.9698    1.0000 </r>
       <r>  -17.9642    1.0000 </r>
       <r>  -17.9513    1.0000 </r>
       <r>  -17.9508    1.0000 </r>
       <r>  -17.9403    1.0000 </r>
       <r>  -17.9400    1.0000 </r>
       <r>   -8.6984    1.0000 </r>
       <r>   -8.6981    1.0000 </r>
       <r>   -7.4572    1.0000 </r>
       <r>   -7.4518    1.0000 </r>
       <r>   -3.4397    1.0000 </r>
       <r>   -3.2754    1.0000 </r>
       <r>   -1.0588    1.0000 </r>
       <r>   -1.0495    1.0000 </r>
       <r>   -0.6565    1.0000 </r>
       <r>   -0.1174    1.0000 </r>
       <r>    0.8092    1.0000 </r>
       <r>    0.8772    1.0000 </r>
       <r>    1.1612    1.0000 </r>
       <r>    1.5848    1.0000 </r>
       <r>    2.8040    1.0108 </r>
       <r>    2.9176    1.0339 </r>
       <r>    4.0615   -0.0000 </r>
       <r>    4.1077   -0.0000 </r>
       <r>    4.9244   -0.0000 </r>
       <r>    5.0912   -0.0000 </r>
       <r>    6.4542   -0.0000 </r>
       <r>    6.5322   -0.0000 </r>
       <r>    6.6965   -0.0000 </r>
       <r>    6.7515   -0.0000 </r>
       <r>    7.0956   -0.0000 </r>
       <r>    7.1501   -0.0000 </r>
       <r>    7.9975   -0.0000 </r>
       <r>    8.3079   -0.0000 </r>
       <r>    9.1234    0.0000 </r>
       <r>    9.3711    0.0000 </r>
       <r>    9.5426    0.0000 </r>
       <r>    9.6278    0.0000 </r>
       <r>   10.3249    0.0000 </r>
       <r>   10.5070    0.0000 </r>
       <r>   10.6560    0.0000 </r>
       <r>   10.7090    0.0000 </r>
       <r>   11.0975    0.0000 </r>
       <r>   11.1244    0.0000 </r>
      </set>
      <set comment="kpoint 16">
       <r>  -20.9139    1.0000 </r>
       <r>  -20.9126    1.0000 </r>
       <r>  -20.9083    1.0000 </r>
       <r>  -20.9056    1.0000 </r>
       <r>  -17.9702    1.0000 </r>
       <r>  -17.9632    1.0000 </r>
       <r>  -17.9513    1.0000 </r>
       <r>  -17.9491    1.0000 </r>
       <r>  -17.9414    1.0000 </r>
       <r>  -17.9393    1.0000 </r>
       <r>   -8.5859    1.0000 </r>
       <r>   -8.5856    1.0000 </r>
       <r>   -7.4132    1.0000 </r>
       <r>   -7.4072    1.0000 </r>
       <r>   -3.4581    1.0000 </r>
       <r>   -3.2841    1.0000 </r>
       <r>   -1.2484    1.0000 </r>
       <r>   -1.2313    1.0000 </r>
       <r>   -0.6343    1.0000 </r>
       <r>   -0.1387    1.0000 </r>
       <r>    0.3552    1.0000 </r>
       <r>    0.4603    1.0000 </r>
       <r>    1.1492    1.0000 </r>
       <r>    1.5415    1.0000 </r>
       <r>    1.9206    1.0000 </r>
       <r>    2.3221    1.0000 </r>
       <r>    4.6880   -0.0000 </r>
       <r>    4.8478   -0.0000 </r>
       <r>    5.3202   -0.0000 </r>
       <r>    5.3527   -0.0000 </r>
       <r>    5.7366   -0.0000 </r>
       <r>    5.9927   -0.0000 </r>
       <r>    7.2101   -0.0000 </r>
       <r>    7.3409   -0.0000 </r>
       <r>    7.7470   -0.0000 </r>
       <r>    7.8397   -0.0000 </r>
       <r>    8.0815   -0.0000 </r>
       <r>    8.1690   -0.0000 </r>
       <r>    8.3852   -0.0000 </r>
       <r>    8.6502    0.0000 </r>
       <r>    8.7278    0.0000 </r>
       <r>    8.7998    0.0000 </r>
       <r>    9.9561    0.0000 </r>
       <r>   10.0967    0.0000 </r>
       <r>   11.4356    0.0000 </r>
       <r>   11.6479    0.0000 </r>
       <r>   11.7610    0.0000 </r>
       <r>   11.9357    0.0000 </r>
      </set>
      <set comment="kpoint 17">
       <r>  -20.9145    1.0000 </r>
       <r>  -20.9130    1.0000 </r>
       <r>  -20.9071    1.0000 </r>
       <r>  -20.9041    1.0000 </r>
       <r>  -17.9701    1.0000 </r>
       <r>  -17.9631    1.0000 </r>
       <r>  -17.9509    1.0000 </r>
       <r>  -17.9481    1.0000 </r>
       <r>  -17.9401    1.0000 </r>
       <r>  -17.9384    1.0000 </r>
       <r>   -8.2738    1.0000 </r>
       <r>   -8.2737    1.0000 </r>
       <r>   -7.3527    1.0000 </r>
       <r>   -7.3462    1.0000 </r>
       <r>   -3.5066    1.0000 </r>
       <r>   -3.3339    1.0000 </r>
       <r>   -1.9382    1.0000 </r>
       <r>   -1.9265    1.0000 </r>
       <r>   -0.5107    1.0000 </r>
       <r>   -0.1289    1.0000 </r>
       <r>    0.0820    1.0000 </r>
       <r>    0.1363    1.0000 </r>
       <r>    1.0271    1.0000 </r>
       <r>    1.0665    1.0000 </r>
       <r>    1.4466    1.0000 </r>
       <r>    1.6522    1.0000 </r>
       <r>    4.3688   -0.0000 </r>
       <r>    4.3828   -0.0000 </r>
       <r>    5.1929   -0.0000 </r>
       <r>    5.2020   -0.0000 </r>
       <r>    6.1043   -0.0000 </r>
       <r>    6.6440   -0.0000 </r>
       <r>    6.8055   -0.0000 </r>
       <r>    6.8130   -0.0000 </r>
       <r>    7.9029   -0.0000 </r>
       <r>    7.9238   -0.0000 </r>
       <r>    8.1892   -0.0000 </r>
       <r>    8.2045   -0.0000 </r>
       <r>    9.0190    0.0000 </r>
       <r>    9.1666    0.0000 </r>
       <r>    9.4527    0.0000 </r>
       <r>    9.8929    0.0000 </r>
       <r>   10.1033    0.0000 </r>
       <r>   10.2108    0.0000 </r>
       <r>   12.3236    0.0000 </r>
       <r>   12.7616    0.0000 </r>
       <r>   12.7942    0.0000 </r>
       <r>   12.9976    0.0000 </r>
      </set>
      <set comment="kpoint 18">
       <r>  -20.9147    1.0000 </r>
       <r>  -20.9133    1.0000 </r>
       <r>  -20.9057    1.0000 </r>
       <r>  -20.9035    1.0000 </r>
       <r>  -17.9693    1.0000 </r>
       <r>  -17.9646    1.0000 </r>
       <r>  -17.9512    1.0000 </r>
       <r>  -17.9483    1.0000 </r>
       <r>  -17.9378    1.0000 </r>
       <r>  -17.9364    1.0000 </r>
       <r>   -7.8651    1.0000 </r>
       <r>   -7.8639    1.0000 </r>
       <r>   -7.4471    1.0000 </r>
       <r>   -7.4436    1.0000 </r>
       <r>   -3.3880    1.0000 </r>
       <r>   -3.2559    1.0000 </r>
       <r>   -2.7965    1.0000 </r>
       <r>   -2.7405    1.0000 </r>
       <r>   -0.2548    1.0000 </r>
       <r>    0.0578    1.0000 </r>
       <r>    0.1936    1.0000 </r>
       <r>    0.2835    1.0000 </r>
       <r>    0.5204    1.0000 </r>
       <r>    0.8623    1.0000 </r>
       <r>    0.9333    1.0000 </r>
       <r>    1.4045    1.0000 </r>
       <r>    4.4468   -0.0000 </r>
       <r>    4.5645   -0.0000 </r>
       <r>    4.9076   -0.0000 </r>
       <r>    4.9264   -0.0000 </r>
       <r>    5.2493   -0.0000 </r>
       <r>    5.6589   -0.0000 </r>
       <r>    5.8476   -0.0000 </r>
       <r>    5.8715   -0.0000 </r>
       <r>    8.2226   -0.0000 </r>
       <r>    8.2322   -0.0000 </r>
       <r>    9.4964    0.0000 </r>
       <r>    9.7488    0.0000 </r>
       <r>    9.9467    0.0000 </r>
       <r>   10.0700    0.0000 </r>
       <r>   10.2355    0.0000 </r>
       <r>   10.4001    0.0000 </r>
       <r>   11.1256    0.0000 </r>
       <r>   11.6769    0.0000 </r>
       <r>   12.4573    0.0000 </r>
       <r>   12.7226    0.0000 </r>
       <r>   12.8935    0.0000 </r>
       <r>   12.9241    0.0000 </r>
      </set>
      <set comment="kpoint 19">
       <r>  -20.9147    1.0000 </r>
       <r>  -20.9133    1.0000 </r>
       <r>  -20.9057    1.0000 </r>
       <r>  -20.9035    1.0000 </r>
       <r>  -17.9693    1.0000 </r>
       <r>  -17.9646    1.0000 </r>
       <r>  -17.9512    1.0000 </r>
       <r>  -17.9482    1.0000 </r>
       <r>  -17.9378    1.0000 </r>
       <r>  -17.9364    1.0000 </r>
       <r>   -7.8651    1.0000 </r>
       <r>   -7.8639    1.0000 </r>
       <r>   -7.4471    1.0000 </r>
       <r>   -7.4436    1.0000 </r>
       <r>   -3.3880    1.0000 </r>
       <r>   -3.2559    1.0000 </r>
       <r>   -2.7965    1.0000 </r>
       <r>   -2.7405    1.0000 </r>
       <r>   -0.2548    1.0000 </r>
       <r>    0.0578    1.0000 </r>
       <r>    0.1936    1.0000 </r>
       <r>    0.2836    1.0000 </r>
       <r>    0.5203    1.0000 </r>
       <r>    0.8623    1.0000 </r>
       <r>    0.9333    1.0000 </r>
       <r>    1.4045    1.0000 </r>
[...]
       <r>     4.6548     0.0000     0.0000 </r>
       <r>     4.7831     0.0000     0.0000 </r>
       <r>     4.9113     0.0000     0.0000 </r>
       <r>     5.0395     0.0000     0.0000 </r>
       <r>     5.1678     0.0000     0.0000 </r>
       <r>     5.2960     0.0000     0.0000 </r>
       <r>     5.4242     0.0000     0.0000 </r>
       <r>     5.5524     0.0000     0.0000 </r>
       <r>     5.6807     0.0000     0.0000 </r>
       <r>     5.8089     0.0000     0.0000 </r>
       <r>     5.9371     0.0000     0.0000 </r>
       <r>     6.0654     0.0000     0.0000 </r>
       <r>     6.1936     0.0000     0.0000 </r>
       <r>     6.3218     0.0000     0.0000 </r>
       <r>     6.4501     0.0000     0.0000 </r>
       <r>     6.5783     0.0000     0.0000 </r>
       <r>     6.7065     0.0000     0.0000 </r>
       <r>     6.8347     0.0000     0.0000 </r>
       <r>     6.9630     0.0000     0.0000 </r>
       <r>     7.0912     0.0000     0.0000 </r>
       <r>     7.2194     0.0000     0.0000 </r>
       <r>     7.3477     0.0000     0.0000 </r>
       <r>     7.4759     0.0000     0.0000 </r>
       <r>     7.6041     0.0000     0.0000 </r>
       <r>     7.7324     0.0000     0.0000 </r>
       <r>     7.8606     0.0000     0.0000 </r>
       <r>     7.9888     0.0000     0.0000 </r>
       <r>     8.1171     0.0000     0.0000 </r>
       <r>     8.2453     0.0000     0.0000 </r>
       <r>     8.3735     0.0000     0.0000 </r>
       <r>     8.5017     0.0000     0.0000 </r>
       <r>     8.6300     0.0000     0.0000 </r>
       <r>     8.7582     0.0000     0.0000 </r>
       <r>     8.8864     0.0000     0.0000 </r>
       <r>     9.0147     0.0000     0.0000 </r>
       <r>     9.1429     0.0000     0.0000 </r>
       <r>     9.2711     0.0000     0.0000 </r>
       <r>     9.3994     0.0000     0.0000 </r>
       <r>     9.5276     0.0000     0.0000 </r>
       <r>     9.6558     0.0000     0.0000 </r>
       <r>     9.7840     0.0000     0.0000 </r>
       <r>     9.9123     0.0000     0.0000 </r>
       <r>    10.0405     0.0000     0.0000 </r>
       <r>    10.1687     0.0000     0.0000 </r>
       <r>    10.2970     0.0000     0.0000 </r>
       <r>    10.4252     0.0000     0.0000 </r>
       <r>    10.5534     0.0000     0.0000 </r>
       <r>    10.6817     0.0000     0.0000 </r>
       <r>    10.8099     0.0000     0.0000 </r>
       <r>    10.9381     0.0000     0.0000 </r>
       <r>    11.0664     0.0000     0.0000 </r>
       <r>    11.1946     0.0000     0.0000 </r>
       <r>    11.3228     0.0000     0.0000 </r>
       <r>    11.4510     0.0000     0.0000 </r>
       <r>    11.5793     0.0000     0.0000 </r>
       <r>    11.7075     0.0000     0.0000 </r>
       <r>    11.8357     0.0000     0.0000 </r>
       <r>    11.9640     0.0000     0.0000 </r>
       <r>    12.0922     0.0000     0.0000 </r>
       <r>    12.2204     0.0000     0.0000 </r>
       <r>    12.3487     0.0000     0.0000 </r>
       <r>    12.4769     0.0000     0.0000 </r>
       <r>    12.6051     0.0000     0.0000 </r>
       <r>    12.7334     0.0000     0.0000 </r>
       <r>    12.8616     0.0000     0.0000 </r>
       <r>    12.9898     0.0000     0.0000 </r>
       <r>    13.1180     0.0000     0.0000 </r>
       <r>    13.2463     0.0000     0.0000 </r>
       <r>    13.3745     0.0000     0.0000 </r>
       <r>    13.5027     0.0000     0.0000 </r>
       <r>    13.6310     0.0000     0.0000 </r>
       <r>    13.7592     0.0000     0.0000 </r>
       <r>    13.8874     0.0000     0.0000 </r>
       <r>    14.0157     0.0000     0.0000 </r>
       <r>    14.1439     0.0000     0.0000 </r>
       <r>    14.2721     0.0000     0.0000 </r>
       <r>    14.4003     0.0000     0.0000 </r>
       <r>    14.5286     0.0000     0.0000 </r>
       <r>    14.6568     0.0000     0.0000 </r>
       <r>    14.7850     0.0000     0.0000 </r>
       <r>    14.9133     0.0000     0.0000 </r>
       <r>    15.0415     0.0000     0.0000 </r>
       <r>    15.1697     0.0000     0.0000 </r>
       <r>    15.2980     0.0000     0.0000 </r>
       <r>    15.4262     0.0000     0.0000 </r>
       <r>    15.5544     0.0000     0.0000 </r>
      </set>
      <set comment="spin 4">
       <r>   -22.9147     0.0000     0.0000 </r>
       <r>   -22.7865     0.0000     0.0000 </r>
       <r>   -22.6583     0.0000     0.0000 </r>
       <r>   -22.5300     0.0000     0.0000 </r>
       <r>   -22.4018     0.0000     0.0000 </r>
       <r>   -22.2736     0.0000     0.0000 </r>
       <r>   -22.1453     0.0000     0.0000 </r>
       <r>   -22.0171     0.0000     0.0000 </r>
       <r>   -21.8889     0.0000     0.0000 </r>
       <r>   -21.7607     0.0000     0.0000 </r>
       <r>   -21.6324     0.0000     0.0000 </r>
       <r>   -21.5042     0.0000     0.0000 </r>
       <r>   -21.3760     0.0000     0.0000 </r>
       <r>   -21.2477     0.0000     0.0000 </r>
       <r>   -21.1195     0.0000     0.0000 </r>
       <r>   -20.9913     0.0000     0.0000 </r>
       <r>   -20.8630     0.0000     0.0000 </r>
       <r>   -20.7348     0.0000     0.0000 </r>
       <r>   -20.6066     0.0000     0.0000 </r>
       <r>   -20.4783     0.0000     0.0000 </r>
       <r>   -20.3501     0.0000     0.0000 </r>
       <r>   -20.2219     0.0000     0.0000 </r>
       <r>   -20.0937     0.0000     0.0000 </r>
       <r>   -19.9654     0.0000     0.0000 </r>
       <r>   -19.8372     0.0000     0.0000 </r>
       <r>   -19.7090     0.0000     0.0000 </r>
       <r>   -19.5807     0.0000     0.0000 </r>
       <r>   -19.4525     0.0000     0.0000 </r>
       <r>   -19.3243     0.0000     0.0000 </r>
       <r>   -19.1960     0.0000     0.0000 </r>
       <r>   -19.0678     0.0000     0.0000 </r>
       <r>   -18.9396     0.0000     0.0000 </r>
       <r>   -18.8114     0.0000     0.0000 </r>
       <r>   -18.6831     0.0000     0.0000 </r>
       <r>   -18.5549     0.0000     0.0000 </r>
       <r>   -18.4267     0.0000     0.0000 </r>
       <r>   -18.2984     0.0000     0.0000 </r>
       <r>   -18.1702     0.0000     0.0000 </r>
       <r>   -18.0420     0.0000     0.0000 </r>
       <r>   -17.9137     0.0000     0.0000 </r>
       <r>   -17.7855     0.0000     0.0000 </r>
       <r>   -17.6573     0.0000     0.0000 </r>
       <r>   -17.5290     0.0000     0.0000 </r>
       <r>   -17.4008     0.0000     0.0000 </r>
       <r>   -17.2726     0.0000     0.0000 </r>
       <r>   -17.1444     0.0000     0.0000 </r>
       <r>   -17.0161     0.0000     0.0000 </r>
       <r>   -16.8879     0.0000     0.0000 </r>
       <r>   -16.7597     0.0000     0.0000 </r>
       <r>   -16.6314     0.0000     0.0000 </r>
       <r>   -16.5032     0.0000     0.0000 </r>
       <r>   -16.3750     0.0000     0.0000 </r>
       <r>   -16.2467     0.0000     0.0000 </r>
       <r>   -16.1185     0.0000     0.0000 </r>
       <r>   -15.9903     0.0000     0.0000 </r>
       <r>   -15.8620     0.0000     0.0000 </r>
       <r>   -15.7338     0.0000     0.0000 </r>
       <r>   -15.6056     0.0000     0.0000 </r>
       <r>   -15.4774     0.0000     0.0000 </r>
       <r>   -15.3491     0.0000     0.0000 </r>
       <r>   -15.2209     0.0000     0.0000 </r>
       <r>   -15.0927     0.0000     0.0000 </r>
       <r>   -14.9644     0.0000     0.0000 </r>
       <r>   -14.8362     0.0000     0.0000 </r>
       <r>   -14.7080     0.0000     0.0000 </r>
       <r>   -14.5797     0.0000     0.0000 </r>
       <r>   -14.4515     0.0000     0.0000 </r>
       <r>   -14.3233     0.0000     0.0000 </r>
       <r>   -14.1951     0.0000     0.0000 </r>
       <r>   -14.0668     0.0000     0.0000 </r>
       <r>   -13.9386     0.0000     0.0000 </r>
       <r>   -13.8104     0.0000     0.0000 </r>
       <r>   -13.6821     0.0000     0.0000 </r>
       <r>   -13.5539     0.0000     0.0000 </r>
       <r>   -13.4257     0.0000     0.0000 </r>
       <r>   -13.2974     0.0000     0.0000 </r>
       <r>   -13.1692     0.0000     0.0000 </r>
       <r>   -13.0410     0.0000     0.0000 </r>
       <r>   -12.9127     0.0000     0.0000 </r>
       <r>   -12.7845     0.0000     0.0000 </r>
       <r>   -12.6563     0.0000     0.0000 </r>
       <r>   -12.5281     0.0000     0.0000 </r>
       <r>   -12.3998     0.0000     0.0000 </r>
       <r>   -12.2716     0.0000     0.0000 </r>
       <r>   -12.1434     0.0000     0.0000 </r>
       <r>   -12.0151     0.0000     0.0000 </r>
       <r>   -11.8869     0.0000     0.0000 </r>
       <r>   -11.7587     0.0000     0.0000 </r>
       <r>   -11.6304     0.0000     0.0000 </r>
       <r>   -11.5022     0.0000     0.0000 </r>
       <r>   -11.3740     0.0000     0.0000 </r>
       <r>   -11.2458     0.0000     0.0000 </r>
       <r>   -11.1175     0.0000     0.0000 </r>
       <r>   -10.9893     0.0000     0.0000 </r>
       <r>   -10.8611     0.0000     0.0000 </r>
       <r>   -10.7328     0.0000     0.0000 </r>
       <r>   -10.6046     0.0000     0.0000 </r>
       <r>   -10.4764     0.0000     0.0000 </r>
       <r>   -10.3481     0.0000     0.0000 </r>
       <r>   -10.2199     0.0000     0.0000 </r>
       <r>   -10.0917     0.0000     0.0000 </r>
       <r>    -9.9634     0.0000     0.0000 </r>
       <r>    -9.8352     0.0000     0.0000 </r>
       <r>    -9.7070     0.0000     0.0000 </r>
       <r>    -9.5788     0.0000     0.0000 </r>
       <r>    -9.4505     0.0000     0.0000 </r>
       <r>    -9.3223     0.0000     0.0000 </r>
       <r>    -9.1941     0.0000     0.0000 </r>
       <r>    -9.0658     0.0000     0.0000 </r>
       <r>    -8.9376     0.0000     0.0000 </r>
       <r>    -8.8094     0.0000     0.0000 </r>
       <r>    -8.6811     0.0000     0.0000 </r>
       <r>    -8.5529     0.0000     0.0000 </r>
       <r>    -8.4247     0.0000     0.0000 </r>
       <r>    -8.2964     0.0000     0.0000 </r>
       <r>    -8.1682     0.0000     0.0000 </r>
       <r>    -8.0400     0.0000     0.0000 </r>
       <r>    -7.9118     0.0000     0.0000 </r>
       <r>    -7.7835     0.0000     0.0000 </r>
       <r>    -7.6553     0.0000     0.0000 </r>
       <r>    -7.5271     0.0000     0.0000 </r>
       <r>    -7.3988     0.0000     0.0000 </r>
       <r>    -7.2706     0.0000     0.0000 </r>
       <r>    -7.1424     0.0000     0.0000 </r>
       <r>    -7.0141     0.0000     0.0000 </r>
       <r>    -6.8859     0.0000     0.0000 </r>
       <r>    -6.7577     0.0000     0.0000 </r>
       <r>    -6.6295     0.0000     0.0000 </r>
       <r>    -6.5012     0.0000     0.0000 </r>
       <r>    -6.3730     0.0000     0.0000 </r>
       <r>    -6.2448     0.0000     0.0000 </r>
       <r>    -6.1165     0.0000     0.0000 </r>
       <r>    -5.9883     0.0000     0.0000 </r>
       <r>    -5.8601     0.0000     0.0000 </r>
       <r>    -5.7318     0.0000     0.0000 </r>
       <r>    -5.6036     0.0000     0.0000 </r>
       <r>    -5.4754     0.0000     0.0000 </r>
       <r>    -5.3471     0.0000     0.0000 </r>
       <r>    -5.2189     0.0000     0.0000 </r>
       <r>    -5.0907     0.0000     0.0000 </r>
       <r>    -4.9625     0.0000     0.0000 </r>
       <r>    -4.8342     0.0000     0.0000 </r>
       <r>    -4.7060     0.0000     0.0000 </r>
       <r>    -4.5778     0.0000     0.0000 </r>
       <r>    -4.4495     0.0000     0.0000 </r>
       <r>    -4.3213     0.0000     0.0000 </r>
       <r>    -4.1931     0.0000     0.0000 </r>
       <r>    -4.0648     0.0000     0.0000 </r>
       <r>    -3.9366     0.0000     0.0000 </r>
       <r>    -3.8084     0.0000     0.0000 </r>
       <r>    -3.6802     0.0000     0.0000 </r>
       <r>    -3.5519     0.0000     0.0000 </r>
       <r>    -3.4237     0.0000     0.0000 </r>
       <r>    -3.2955     0.0000     0.0000 </r>
       <r>    -3.1672     0.0000     0.0000 </r>
       <r>    -3.0390     0.0000     0.0000 </r>
       <r>    -2.9108     0.0000     0.0000 </r>
       <r>    -2.7825     0.0000     0.0000 </r>
       <r>    -2.6543     0.0000     0.0000 </r>
       <r>    -2.5261     0.0000     0.0000 </r>
       <r>    -2.3978     0.0000     0.0000 </r>
       <r>    -2.2696     0.0000     0.0000 </r>
       <r>    -2.1414     0.0000     0.0000 </r>
       <r>    -2.0132     0.0000     0.0000 </r>
       <r>    -1.8849     0.0000     0.0000 </r>
       <r>    -1.7567     0.0000     0.0000 </r>
       <r>    -1.6285     0.0000     0.0000 </r>
       <r>    -1.5002     0.0000     0.0000 </r>
       <r>    -1.3720     0.0000     0.0000 </r>
       <r>    -1.2438     0.0000     0.0000 </r>
       <r>    -1.1155     0.0000     0.0000 </r>
       <r>    -0.9873     0.0000     0.0000 </r>
       <r>    -0.8591     0.0000     0.0000 </r>
       <r>    -0.7309     0.0000     0.0000 </r>
       <r>    -0.6026     0.0000     0.0000 </r>
       <r>    -0.4744     0.0000     0.0000 </r>
       <r>    -0.3462     0.0000     0.0000 </r>
       <r>    -0.2179     0.0000     0.0000 </r>
       <r>    -0.0897     0.0000     0.0000 </r>
       <r>     0.0385     0.0000     0.0000 </r>
       <r>     0.1668     0.0000     0.0000 </r>
       <r>     0.2950     0.0000     0.0000 </r>
       <r>     0.4232     0.0000     0.0000 </r>
       <r>     0.5515     0.0000     0.0000 </r>
       <r>     0.6797     0.0000     0.0000 </r>
       <r>     0.8079     0.0000     0.0000 </r>
       <r>     0.9361     0.0000     0.0000 </r>
       <r>     1.0644     0.0000     0.0000 </r>
       <r>     1.1926     0.0000     0.0000 </r>
       <r>     1.3208     0.0000     0.0000 </r>
       <r>     1.4491     0.0000     0.0000 </r>
       <r>     1.5773     0.0000     0.0000 </r>
       <r>     1.7055     0.0000     0.0000 </r>
       <r>     1.8338     0.0000     0.0000 </r>
       <r>     1.9620     0.0000     0.0000 </r>
       <r>     2.0902     0.0000     0.0000 </r>
       <r>     2.2185     0.0000     0.0000 </r>
       <r>     2.3467     0.0000     0.0000 </r>
       <r>     2.4749     0.0000     0.0000 </r>
       <r>     2.6031     0.0000     0.0000 </r>
       <r>     2.7314     0.0000     0.0000 </r>
       <r>     2.8596     0.0000     0.0000 </r>
       <r>     2.9878     0.0000     0.0000 </r>
       <r>     3.1161     0.0000     0.0000 </r>
       <r>     3.2443     0.0000     0.0000 </r>
       <r>     3.3725     0.0000     0.0000 </r>
       <r>     3.5008     0.0000     0.0000 </r>
       <r>     3.6290     0.0000     0.0000 </r>
       <r>     3.7572     0.0000     0.0000 </r>
       <r>     3.8854     0.0000     0.0000 </r>
       <r>     4.0137     0.0000     0.0000 </r>
       <r>     4.1419     0.0000     0.0000 </r>
       <r>     4.2701     0.0000     0.0000 </r>
       <r>     4.3984     0.0000     0.0000 </r>
       <r>     4.5266     0.0000     0.0000 </r>
       <r>     4.6548     0.0000     0.0000 </r>
       <r>     4.7831     0.0000     0.0000 </r>
       <r>     4.9113     0.0000     0.0000 </r>
       <r>     5.0395     0.0000     0.0000 </r>
       <r>     5.1678     0.0000     0.0000 </r>
       <r>     5.2960     0.0000     0.0000 </r>
       <r>     5.4242     0.0000     0.0000 </r>
       <r>     5.5524     0.0000     0.0000 </r>
       <r>     5.6807     0.0000     0.0000 </r>
       <r>     5.8089     0.0000     0.0000 </r>
       <r>     5.9371     0.0000     0.0000 </r>
       <r>     6.0654     0.0000     0.0000 </r>
       <r>     6.1936     0.0000     0.0000 </r>
       <r>     6.3218     0.0000     0.0000 </r>
       <r>     6.4501     0.0000     0.0000 </r>
       <r>     6.5783     0.0000     0.0000 </r>
       <r>     6.7065     0.0000     0.0000 </r>
       <r>     6.8347     0.0000     0.0000 </r>
       <r>     6.9630     0.0000     0.0000 </r>
       <r>     7.0912     0.0000     0.0000 </r>
       <r>     7.2194     0.0000     0.0000 </r>
       <r>     7.3477     0.0000     0.0000 </r>
       <r>     7.4759     0.0000     0.0000 </r>
       <r>     7.6041     0.0000     0.0000 </r>
       <r>     7.7324     0.0000     0.0000 </r>
       <r>     7.8606     0.0000     0.0000 </r>
       <r>     7.9888     0.0000     0.0000 </r>
       <r>     8.1171     0.0000     0.0000 </r>
       <r>     8.2453     0.0000     0.0000 </r>
       <r>     8.3735     0.0000     0.0000 </r>
       <r>     8.5017     0.0000     0.0000 </r>
       <r>     8.6300     0.0000     0.0000 </r>
       <r>     8.7582     0.0000     0.0000 </r>
       <r>     8.8864     0.0000     0.0000 </r>
       <r>     9.0147     0.0000     0.0000 </r>
       <r>     9.1429     0.0000     0.0000 </r>
       <r>     9.2711     0.0000     0.0000 </r>
       <r>     9.3994     0.0000     0.0000 </r>
       <r>     9.5276     0.0000     0.0000 </r>
       <r>     9.6558     0.0000     0.0000 </r>
       <r>     9.7840     0.0000     0.0000 </r>
       <r>     9.9123     0.0000     0.0000 </r>
       <r>    10.0405     0.0000     0.0000 </r>
       <r>    10.1687     0.0000     0.0000 </r>
       <r>    10.2970     0.0000     0.0000 </r>
       <r>    10.4252     0.0000     0.0000 </r>
       <r>    10.5534     0.0000     0.0000 </r>
       <r>    10.6817     0.0000     0.0000 </r>
       <r>    10.8099     0.0000     0.0000 </r>
       <r>    10.9381     0.0000     0.0000 </r>
       <r>    11.0664     0.0000     0.0000 </r>
       <r>    11.1946     0.0000     0.0000 </r>
       <r>    11.3228     0.0000     0.0000 </r>
       <r>    11.4510     0.0000     0.0000 </r>
       <r>    11.5793     0.0000     0.0000 </r>
       <r>    11.7075     0.0000     0.0000 </r>
       <r>    11.8357     0.0000     0.0000 </r>
       <r>    11.9640     0.0000     0.0000 </r>
       <r>    12.0922     0.0000     0.0000 </r>
       <r>    12.2204     0.0000     0.0000 </r>
       <r>    12.3487     0.0000     0.0000 </r>
       <r>    12.4769     0.0000     0.0000 </r>
       <r>    12.6051     0.0000     0.0000 </r>
       <r>    12.7334     0.0000     0.0000 </r>
       <r>    12.8616     0.0000     0.0000 </r>
       <r>    12.9898     0.0000     0.0000 </r>
       <r>    13.1180     0.0000     0.0000 </r>
       <r>    13.2463     0.0000     0.0000 </r>
       <r>    13.3745     0.0000     0.0000 </r>
       <r>    13.5027     0.0000     0.0000 </r>
       <r>    13.6310     0.0000     0.0000 </r>
       <r>    13.7592     0.0000     0.0000 </r>
       <r>    13.8874     0.0000     0.0000 </r>
       <r>    14.0157     0.0000     0.0000 </r>
       <r>    14.1439     0.0000     0.0000 </r>
       <r>    14.2721     0.0000     0.0000 </r>
       <r>    14.4003     0.0000     0.0000 </r>
       <r>    14.5286     0.0000     0.0000 </r>
       <r>    14.6568     0.0000     0.0000 </r>
       <r>    14.7850     0.0000     0.0000 </r>
       <r>    14.9133     0.0000     0.0000 </r>
       <r>    15.0415     0.0000     0.0000 </r>
       <r>    15.1697     0.0000     0.0000 </r>
       <r>    15.2980     0.0000     0.0000 </r>
       <r>    15.4262     0.0000     0.0000 </r>
       <r>    15.5544     0.0000     0.0000 </r>
      </set>
     </set>
    </array>
   </total>
  </dos>
 </calculation>
 <structure name="finalpos" >
  <crystal>
   <varray name="basis" >
    <v>       4.30014086       0.00000000       0.00000000 </v>
    <v>       0.00000000       4.30014086       0.00000000 </v>
    <v>       0.00000000       0.00000000       6.14586115 </v>
   </varray>
   <i name="volume">    113.64441771 </i>
   <varray name="rec_basis" >
    <v>       0.23255052       0.00000000       0.00000000 </v>
    <v>       0.00000000       0.23255052       0.00000000 </v>
    <v>       0.00000000       0.00000000       0.16271113 </v>
   </varray>
  </crystal>
  <varray name="positions" >
   <v>       0.50000000       0.00000000       0.72573602 </v>
   <v>       0.00000000       0.50000000       0.27426400 </v>
   <v>       0.00000000       0.00000000       0.00000000 </v>
   <v>       0.50000000       0.50000000       0.50000000 </v>
  </varray>
 </structure>
</modeling>
