   4   4   0   0
  0.2841110E+02  0.4300141E-09  0.4300141E-09  0.6145861E-09  0.5000000E-15
  1.000000000000000E-004
  CAR 
 Ga2BiAs                                 
     12.62461510    -21.27935567  301      3.16709639      1.00000000
    -21.279  0.0000E+00  0.0000E+00
    -21.166  0.0000E+00  0.0000E+00
    -21.053  0.0000E+00  0.0000E+00
    -20.940 -0.8070E-28 -0.9121E-29
    -20.827 -0.6773E-24 -0.7655E-25
    -20.714 -0.2994E-20 -0.3384E-21
    -20.601 -0.6968E-17 -0.7878E-18
    -20.488 -0.8531E-14 -0.9649E-15
    -20.375 -0.5311E-11 -0.6012E-12
    -20.262 -0.1778E-08 -0.2016E-09
    -20.149 -0.3106E-06 -0.3530E-07
    -20.036 -0.2811E-04 -0.3212E-05
    -19.923 -0.1305E-02 -0.1506E-03
    -19.810 -0.3037E-01 -0.3583E-02
    -19.697 -0.3379E+00 -0.4177E-01
    -19.584 -0.1548E+01 -0.2167E+00
    -19.471 -0.6462E+00 -0.2897E+00
    -19.358  0.1427E+02  0.1323E+01
    -19.245  0.3721E+02  0.5528E+01
    -19.132  0.3327E+02  0.9289E+01
    -19.019  0.9309E+01  0.1034E+02
    -18.906 -0.1577E+01  0.1016E+02
    -18.793 -0.1210E+01  0.1003E+02
    -18.680 -0.2113E+00  0.1000E+02
    -18.567 -0.1602E-01  0.1000E+02
    -18.454 -0.5902E-03  0.1000E+02
    -18.341 -0.1099E-04  0.1000E+02
    -18.228 -0.1054E-06  0.1000E+02
    -18.115 -0.5252E-09  0.1000E+02
    -18.002 -0.1370E-11  0.1000E+02
    -17.889  0.0000E+00  0.1000E+02
    -17.776  0.0000E+00  0.1000E+02
    -17.663  0.0000E+00  0.1000E+02
    -17.550  0.0000E+00  0.1000E+02
    -17.437  0.0000E+00  0.1000E+02
    -17.324  0.0000E+00  0.1000E+02
    -17.211  0.0000E+00  0.1000E+02
    -17.098  0.0000E+00  0.1000E+02
    -16.985  0.0000E+00  0.1000E+02
    -16.872  0.0000E+00  0.1000E+02
    -16.759  0.0000E+00  0.1000E+02
    -16.646  0.0000E+00  0.1000E+02
    -16.533  0.0000E+00  0.1000E+02
    -16.420  0.0000E+00  0.1000E+02
    -16.307  0.0000E+00  0.1000E+02
    -16.194  0.0000E+00  0.1000E+02
    -16.081  0.0000E+00  0.1000E+02
    -15.968  0.0000E+00  0.1000E+02
    -15.855  0.0000E+00  0.1000E+02
    -15.742  0.0000E+00  0.1000E+02
    -15.629  0.0000E+00  0.1000E+02
    -15.516  0.0000E+00  0.1000E+02
    -15.403  0.0000E+00  0.1000E+02
    -15.290  0.0000E+00  0.1000E+02
    -15.177  0.0000E+00  0.1000E+02
    -15.064  0.0000E+00  0.1000E+02
    -14.951  0.0000E+00  0.1000E+02
    -14.838  0.0000E+00  0.1000E+02
    -14.725  0.0000E+00  0.1000E+02
    -14.612  0.0000E+00  0.1000E+02
    -14.499  0.0000E+00  0.1000E+02
    -14.386  0.0000E+00  0.1000E+02
    -14.273  0.0000E+00  0.1000E+02
    -14.160  0.0000E+00  0.1000E+02
    -14.047  0.0000E+00  0.1000E+02
    -13.933  0.0000E+00  0.1000E+02
    -13.820  0.0000E+00  0.1000E+02
    -13.707  0.0000E+00  0.1000E+02
    -13.594  0.0000E+00  0.1000E+02
    -13.481  0.0000E+00  0.1000E+02
    -13.368  0.0000E+00  0.1000E+02
    -13.255  0.0000E+00  0.1000E+02
    -13.142  0.0000E+00  0.1000E+02
    -13.029  0.0000E+00  0.1000E+02
    -12.916  0.0000E+00  0.1000E+02
    -12.803  0.0000E+00  0.1000E+02
    -12.690  0.0000E+00  0.1000E+02
    -12.577  0.0000E+00  0.1000E+02
    -12.464  0.0000E+00  0.1000E+02
    -12.351  0.0000E+00  0.1000E+02
    -12.238  0.0000E+00  0.1000E+02
    -12.125  0.0000E+00  0.1000E+02
    -12.012  0.0000E+00  0.1000E+02
    -11.899  0.0000E+00  0.1000E+02
    -11.786  0.0000E+00  0.1000E+02
    -11.673  0.0000E+00  0.1000E+02
    -11.560  0.0000E+00  0.1000E+02
    -11.447  0.0000E+00  0.1000E+02
    -11.334  0.0000E+00  0.1000E+02
    -11.221  0.0000E+00  0.1000E+02
    -11.108  0.0000E+00  0.1000E+02
    -10.995  0.0000E+00  0.1000E+02
    -10.882  0.0000E+00  0.1000E+02
    -10.769 -0.7583E-28  0.1000E+02
    -10.656 -0.4360E-24  0.1000E+02
    -10.543 -0.1316E-20  0.1000E+02
    -10.430 -0.2083E-17  0.1000E+02
    -10.317 -0.1674E-14  0.1000E+02
    -10.204 -0.7206E-12  0.1000E+02
    -10.091 -0.1611E-09  0.1000E+02
     -9.978 -0.1862E-07  0.1000E+02
     -9.865 -0.1102E-05  0.1000E+02
     -9.752 -0.3283E-04  0.1000E+02
     -9.639 -0.4760E-03  0.1000E+02
     -9.526 -0.3103E-02  0.1000E+02
     -9.413 -0.6817E-02  0.9999E+01
     -9.300  0.7852E-02  0.1000E+02
     -9.187  0.5522E-01  0.1001E+02
     -9.074  0.1553E+00  0.1002E+02
     -8.961  0.3907E+00  0.1007E+02
     -8.848  0.6835E+00  0.1014E+02
     -8.735  0.1032E+01  0.1026E+02
     -8.622  0.1331E+01  0.1041E+02
     -8.509  0.1272E+01  0.1056E+02
     -8.396  0.1133E+01  0.1068E+02
     -8.283  0.1152E+01  0.1081E+02
     -8.170  0.1742E+01  0.1101E+02
     -8.057  0.2746E+01  0.1132E+02
     -7.944  0.3360E+01  0.1170E+02
     -7.831  0.3528E+01  0.1210E+02
     -7.718  0.4053E+01  0.1256E+02
     -7.605  0.4425E+01  0.1306E+02
     -7.492  0.3682E+01  0.1347E+02
     -7.379  0.2793E+01  0.1379E+02
     -7.266  0.1678E+01  0.1398E+02
     -7.153  0.3749E+00  0.1402E+02
     -7.040 -0.1124E+00  0.1401E+02
     -6.927 -0.6642E-01  0.1400E+02
     -6.814 -0.1113E-01  0.1400E+02
     -6.701 -0.8316E-03  0.1400E+02
     -6.588 -0.3048E-04  0.1400E+02
     -6.475 -0.5675E-06  0.1400E+02
     -6.362 -0.5463E-08  0.1400E+02
     -6.249 -0.2742E-10  0.1400E+02
     -6.136 -0.7199E-13  0.1400E+02
     -6.023  0.0000E+00  0.1400E+02
     -5.910  0.0000E+00  0.1400E+02
     -5.797  0.0000E+00  0.1400E+02
     -5.684  0.0000E+00  0.1400E+02
     -5.571  0.0000E+00  0.1400E+02
     -5.458  0.0000E+00  0.1400E+02
     -5.344  0.0000E+00  0.1400E+02
     -5.231 -0.1704E-31  0.1400E+02
     -5.118 -0.2023E-27  0.1400E+02
     -5.005 -0.1134E-23  0.1400E+02
     -4.892 -0.3365E-20  0.1400E+02
     -4.779 -0.5286E-17  0.1400E+02
     -4.666 -0.4256E-14  0.1400E+02
     -4.553 -0.1872E-11  0.1400E+02
     -4.440 -0.4343E-09  0.1400E+02
     -4.327 -0.5329E-07  0.1400E+02
     -4.214 -0.3450E-05  0.1400E+02
     -4.101 -0.1173E-03  0.1400E+02
     -3.988 -0.2067E-02  0.1400E+02
     -3.875 -0.1831E-01  0.1400E+02
     -3.762 -0.7318E-01  0.1399E+02
     -3.649 -0.6042E-01  0.1398E+02
     -3.536  0.4573E+00  0.1403E+02
     -3.423  0.1815E+01  0.1424E+02
     -3.310  0.3769E+01  0.1467E+02
     -3.197  0.5071E+01  0.1524E+02
     -3.084  0.3893E+01  0.1568E+02
     -2.971  0.1567E+01  0.1586E+02
     -2.858  0.1186E+01  0.1599E+02
     -2.745  0.2706E+01  0.1630E+02
     -2.632  0.3380E+01  0.1668E+02
     -2.519  0.1968E+01  0.1690E+02
     -2.406  0.5932E+00  0.1697E+02
     -2.293  0.5778E+00  0.1703E+02
     -2.180  0.8024E+00  0.1712E+02
     -2.067  0.4751E+00  0.1718E+02
     -1.954  0.2832E+00  0.1721E+02
     -1.841  0.4686E+00  0.1726E+02
     -1.728  0.7646E+00  0.1735E+02
     -1.615  0.8459E+00  0.1744E+02
     -1.502  0.4017E+00  0.1749E+02
     -1.389  0.1891E+00  0.1751E+02
     -1.276  0.6319E+00  0.1758E+02
     -1.163  0.7912E+00  0.1767E+02
     -1.050  0.3485E+00  0.1771E+02
     -0.937  0.1968E+00  0.1773E+02
     -0.824  0.3577E+00  0.1777E+02
     -0.711  0.2260E+00  0.1780E+02
     -0.598  0.1944E+00  0.1782E+02
     -0.485  0.8412E+00  0.1792E+02
     -0.372  0.1539E+01  0.1809E+02
     -0.259  0.2282E+01  0.1835E+02
     -0.146  0.3739E+01  0.1877E+02
     -0.033  0.3885E+01  0.1921E+02
      0.080  0.2110E+01  0.1945E+02
      0.193  0.8656E+00  0.1955E+02
      0.306  0.1137E+01  0.1967E+02
      0.419  0.2283E+01  0.1993E+02
      0.532  0.3591E+01  0.2034E+02
      0.645  0.5312E+01  0.2094E+02
      0.758  0.6453E+01  0.2167E+02
      0.871  0.5226E+01  0.2226E+02
      0.984  0.2704E+01  0.2256E+02
      1.097  0.1039E+01  0.2268E+02
      1.210  0.9716E+00  0.2279E+02
      1.323  0.1867E+01  0.2300E+02
      1.436  0.3410E+01  0.2339E+02
      1.549  0.4134E+01  0.2385E+02
      1.662  0.2841E+01  0.2418E+02
      1.775  0.1564E+01  0.2435E+02
      1.888  0.1431E+01  0.2451E+02
      2.001  0.1265E+01  0.2466E+02
      2.114  0.1202E+01  0.2479E+02
      2.227  0.1350E+01  0.2495E+02
      2.340  0.1543E+01  0.2512E+02
      2.453  0.1871E+01  0.2533E+02
      2.566  0.1929E+01  0.2555E+02
      2.679  0.1631E+01  0.2573E+02
      2.792  0.8821E+00  0.2583E+02
      2.905  0.2537E+00  0.2586E+02
      3.018  0.3141E+00  0.2590E+02
      3.132  0.6397E+00  0.2597E+02
      3.245  0.9524E+00  0.2608E+02
      3.358  0.9856E+00  0.2619E+02
      3.471  0.4589E+00  0.2624E+02
      3.584 -0.3328E-01  0.2624E+02
      3.697  0.4392E-01  0.2624E+02
      3.810  0.7467E+00  0.2633E+02
      3.923  0.1401E+01  0.2648E+02
      4.036  0.1232E+01  0.2662E+02
      4.149  0.7201E+00  0.2671E+02
      4.262  0.7463E+00  0.2679E+02
      4.375  0.1375E+01  0.2694E+02
      4.488  0.1647E+01  0.2713E+02
      4.601  0.2317E+01  0.2739E+02
      4.714  0.4074E+01  0.2785E+02
      4.827  0.5253E+01  0.2845E+02
      4.940  0.4735E+01  0.2898E+02
      5.053  0.2634E+01  0.2928E+02
      5.166  0.1084E+01  0.2940E+02
      5.279  0.1182E+01  0.2954E+02
      5.392  0.1542E+01  0.2971E+02
      5.505  0.1319E+01  0.2986E+02
      5.618  0.1318E+01  0.3001E+02
      5.731  0.1526E+01  0.3018E+02
      5.844  0.1311E+01  0.3033E+02
      5.957  0.1877E+01  0.3054E+02
      6.070  0.2972E+01  0.3088E+02
      6.183  0.2543E+01  0.3116E+02
      6.296  0.1182E+01  0.3130E+02
      6.409  0.9816E+00  0.3141E+02
      6.522  0.2897E+01  0.3174E+02
      6.635  0.4900E+01  0.3229E+02
      6.748  0.4199E+01  0.3276E+02
      6.861  0.2250E+01  0.3302E+02
      6.974  0.1927E+01  0.3324E+02
      7.087  0.3480E+01  0.3363E+02
      7.200  0.4551E+01  0.3414E+02
      7.313  0.3807E+01  0.3457E+02
      7.426  0.2540E+01  0.3486E+02
      7.539  0.2001E+01  0.3509E+02
      7.652  0.1873E+01  0.3530E+02
      7.765  0.2189E+01  0.3555E+02
      7.878  0.3042E+01  0.3589E+02
      7.991  0.3263E+01  0.3626E+02
      8.104  0.2585E+01  0.3655E+02
      8.217  0.1804E+01  0.3675E+02
      8.330  0.1878E+01  0.3697E+02
      8.443  0.3317E+01  0.3734E+02
      8.556  0.4783E+01  0.3788E+02
      8.669  0.4278E+01  0.3837E+02
      8.782  0.2198E+01  0.3861E+02
      8.895  0.6276E+00  0.3869E+02
      9.008  0.5482E+00  0.3875E+02
      9.121  0.1101E+01  0.3887E+02
      9.234  0.1949E+01  0.3909E+02
      9.347  0.2381E+01  0.3936E+02
      9.460  0.1387E+01  0.3952E+02
      9.573  0.3030E+00  0.3955E+02
      9.686  0.4087E-01  0.3956E+02
      9.799  0.2308E+00  0.3958E+02
      9.912  0.9128E+00  0.3969E+02
     10.025  0.1264E+01  0.3983E+02
     10.138  0.6210E+00  0.3990E+02
     10.251  0.1525E-01  0.3990E+02
     10.364 -0.8054E-01  0.3989E+02
     10.477  0.4329E-01  0.3990E+02
     10.590  0.3092E+00  0.3993E+02
     10.703  0.4236E+00  0.3998E+02
     10.816  0.2019E+00  0.4000E+02
     10.929  0.5894E-02  0.4000E+02
     11.042 -0.1948E-01  0.4000E+02
     11.155 -0.5065E-02  0.4000E+02
     11.268 -0.5095E-03  0.4000E+02
     11.381 -0.2399E-04  0.4000E+02
     11.494 -0.5602E-06  0.4000E+02
     11.607 -0.6647E-08  0.4000E+02
     11.721 -0.4061E-10  0.4000E+02
     11.834 -0.1287E-12  0.4000E+02
     11.947 -0.2096E-15  0.4000E+02
     12.060  0.0000E+00  0.4000E+02
     12.173  0.0000E+00  0.4000E+02
     12.286  0.0000E+00  0.4000E+02
     12.399  0.0000E+00  0.4000E+02
     12.512  0.0000E+00  0.4000E+02
     12.625  0.0000E+00  0.4000E+02
