    4    4    1    1
  0.2841110E+02  0.4300141E-09  0.4300141E-09  0.6145861E-09  0.5000000E-15
  1.000000000000000E-004
  CAR 
 Ga2BiAs                                 
     26     12     20
 
  0.0000000E+00  0.0000000E+00  0.0000000E+00  0.1333333E-01
    1      -19.276963   1.000000
    2      -19.268711   1.000000
    3      -19.268711   1.000000
    4      -19.251493   1.000000
    5      -19.229517   1.000000
    6       -9.167627   1.000000
    7       -7.427495   1.000000
    8       -3.527571   1.000000
    9        0.466594   1.000000
   10        0.466594   1.000000
   11        1.847796   1.000000
   12        2.930742   1.035156
   13        3.183896   0.429191
   14        3.183897   0.429189
   15        4.127054  -0.000000
   16        4.392761  -0.000000
   17        6.190808  -0.000000
   18        6.190808  -0.000000
   19        6.358187  -0.000000
   20        8.899039   0.000000
 
  0.2000000E+00  0.0000000E+00  0.0000000E+00  0.5333333E-01
    1      -19.275206   1.000000
    2      -19.268720   1.000000
    3      -19.268460   1.000000
    4      -19.249624   1.000000
    5      -19.231145   1.000000
    6       -8.939032   1.000000
    7       -7.430809   1.000000
    8       -3.432308   1.000000
    9       -0.495685   1.000000
   10        0.332529   1.000000
   11        0.673939   1.000000
   12        2.101758   1.000000
   13        3.053939   0.904070
   14        3.827036  -0.000016
   15        4.686086  -0.000000
   16        5.990473  -0.000000
   17        6.290581  -0.000000
   18        6.451105  -0.000000
   19        7.561158  -0.000000
   20        9.950956   0.000000
 
  0.4000000E+00  0.0000000E+00  0.0000000E+00  0.5333333E-01
    1      -19.279229   1.000000
    2      -19.268025   1.000000
    3      -19.264041   1.000000
    4      -19.244405   1.000000
    5      -19.233753   1.000000
    6       -8.340398   1.000000
    7       -7.683916   1.000000
    8       -3.077466   1.000000
    9       -1.914817   1.000000
   10       -0.372830   1.000000
   11        0.602857   1.000000
   12        1.138230   1.000000
   13        2.673298   1.001329
   14        4.333975  -0.000000
   15        5.346459  -0.000000
   16        7.022359  -0.000000
   17        7.266828  -0.000000
   18        7.588640  -0.000000
   19        8.513802  -0.000000
   20        8.614813  -0.000000
 
  0.2000000E+00  0.2000000E+00  0.0000000E+00  0.5333333E-01
    1      -19.274617   1.000000
    2      -19.272431   1.000000
    3      -19.262318   1.000000
    4      -19.248666   1.000000
    5      -19.232820   1.000000
    6       -8.715413   1.000000
    7       -7.396021   1.000000
    8       -3.400054   1.000000
    9       -0.861078   1.000000
   10       -0.183072   1.000000
   11        0.306972   1.000000
   12        1.798489   1.000000
   13        1.946269   1.000000
   14        4.707377  -0.000000
   15        5.240893  -0.000000
   16        6.091063  -0.000000
   17        6.560168  -0.000000
   18        7.914000  -0.000000
   19        8.287516  -0.000000
   20        8.448949  -0.000000
 
  0.4000000E+00  0.2000000E+00  0.0000000E+00  0.1066667E+00
    1      -19.278889   1.000000
    2      -19.272661   1.000000
    3      -19.255714   1.000000
    4      -19.244388   1.000000
    5      -19.235537   1.000000
    6       -8.141063   1.000000
    7       -7.548471   1.000000
    8       -3.205550   1.000000
    9       -2.247294   1.000000
   10       -0.187454   1.000000
   11        0.465121   1.000000
   12        0.733712   1.000000
   13        1.523136   1.000000
   14        4.977675  -0.000000
   15        5.398287  -0.000000
   16        6.119524  -0.000000
   17        6.588359  -0.000000
   18        7.470274  -0.000000
   19        8.443871  -0.000000
   20        9.225534   0.000000
 
  0.4000000E+00  0.4000000E+00  0.0000000E+00  0.5333333E-01
    1      -19.278443   1.000000
    2      -19.278193   1.000000
    3      -19.244458   1.000000
    4      -19.243946   1.000000
    5      -19.238413   1.000000
    6       -7.687949   1.000000
    7       -7.363970   1.000000
    8       -3.486556   1.000000
    9       -3.101449   1.000000
   10        0.164127   1.000000
   11        0.402029   1.000000
   12        0.736511   1.000000
   13        0.905482   1.000000
   14        4.083673  -0.000000
   15        4.424615  -0.000000
   16        4.884942  -0.000000
   17        5.211844  -0.000000
   18        9.939818   0.000000
   19        9.956568   0.000000
   20       10.624615   0.000000
 
  0.0000000E+00  0.0000000E+00  0.3333333E+00  0.2666667E-01
    1      -19.276962   1.000000
    2      -19.268763   1.000000
    3      -19.268763   1.000000
    4      -19.251324   1.000000
    5      -19.229537   1.000000
    6       -8.856023   1.000000
    7       -8.036254   1.000000
    8       -2.441900   1.000000
    9       -0.241239   1.000000
   10        0.745149   1.000000
   11        0.745150   1.000000
   12        2.385694   1.000000
   13        2.385695   1.000000
   14        3.989603  -0.000000
   15        4.765636  -0.000000
   16        5.065191  -0.000000
   17        5.785025  -0.000000
   18        7.559673  -0.000000
   19        7.559673  -0.000000
   20        9.611990   0.000000
 
  0.2000000E+00  0.0000000E+00  0.3333333E+00  0.1066667E+00
    1      -19.275272   1.000000
    2      -19.268746   1.000000
    3      -19.268499   1.000000
    4      -19.249463   1.000000
    5      -19.231140   1.000000
    6       -8.652987   1.000000
    7       -7.924782   1.000000
    8       -2.732020   1.000000
    9       -1.254634   1.000000
   10        0.462054   1.000000
   11        0.903598   1.000000
   12        2.154814   1.000000
   13        2.488537   1.000009
   14        3.882721  -0.000003
   15        4.854384  -0.000000
   16        6.012454  -0.000000
   17        6.829083  -0.000000
   18        7.331557  -0.000000
   19        7.797319  -0.000000
   20        8.569638  -0.000000
 
  0.4000000E+00  0.0000000E+00  0.3333333E+00  0.1066667E+00
    1      -19.279356   1.000000
    2      -19.268062   1.000000
    3      -19.264020   1.000000
    4      -19.244280   1.000000
    5      -19.233749   1.000000
    6       -8.174493   1.000000
    7       -7.821445   1.000000
    8       -3.264176   1.000000
    9       -2.617779   1.000000
   10        0.736759   1.000000
   11        1.211956   1.000000
   12        1.822720   1.000000
   13        2.632873   1.000521
   14        3.296456   0.060089
   15        4.374943  -0.000000
   16        6.715422  -0.000000
   17        7.085549  -0.000000
   18        7.269647  -0.000000
   19        7.753910  -0.000000
   20        9.329650   0.000000
 
  0.2000000E+00  0.2000000E+00  0.3333333E+00  0.1066667E+00
    1      -19.274689   1.000000
    2      -19.272507   1.000000
    3      -19.262325   1.000000
    4      -19.248508   1.000000
    5      -19.232805   1.000000
    6       -8.454074   1.000000
    7       -7.804650   1.000000
    8       -2.862732   1.000000
    9       -1.682143   1.000000
   10       -0.113361   1.000000
   11        0.775990   1.000000
   12        1.381094   1.000000
   13        2.354581   1.000000
   14        4.632285  -0.000000
   15        5.620897  -0.000000
   16        6.579301  -0.000000
   17        6.698988  -0.000000
   18        6.998659  -0.000000
   19        7.912218  -0.000000
   20        8.284914  -0.000000
 
  0.4000000E+00  0.2000000E+00  0.3333333E+00  0.2133333E+00
    1      -19.278989   1.000000
    2      -19.272714   1.000000
    3      -19.255702   1.000000
    4      -19.244272   1.000000
    5      -19.235528   1.000000
    6       -7.995097   1.000000
    7       -7.667151   1.000000
    8       -3.238769   1.000000
    9       -2.707952   1.000000
   10       -0.129084   1.000000
   11        0.641102   1.000000
   12        1.428531   1.000000
   13        1.561118   1.000000
   14        4.664278  -0.000000
   15        4.874304  -0.000000
   16        6.571010  -0.000000
   17        7.126701  -0.000000
   18        8.081886  -0.000000
   19        8.496272  -0.000000
   20        8.676304   0.000000
 
  0.4000000E+00  0.4000000E+00  0.3333333E+00  0.1066667E+00
    1      -19.278523   1.000000
    2      -19.278275   1.000000
    3      -19.244337   1.000000
    4      -19.243952   1.000000
    5      -19.238388   1.000000
    6       -7.625649   1.000000
    7       -7.392168   1.000000
    8       -3.366907   1.000000
    9       -3.173343   1.000000
   10       -0.421760   1.000000
   11        0.017006   1.000000
   12        0.624460   1.000000
   13        0.877683   1.000000
   14        4.809977  -0.000000
   15        5.712026  -0.000000
   16        5.983866  -0.000000
   17        7.187955  -0.000000
   18        7.913170  -0.000000
   19        9.025653   0.000000
   20        9.286831   0.000000
