       N       E                     dE             d eps       ncg     rms          rms(c)
DAV:   1     0.178281566818E+03    0.17828E+03   -0.11359E+04   480   0.114E+03
DAV:   2    -0.675604537796E-01   -0.17835E+03   -0.17174E+03   508   0.283E+02
DAV:   3    -0.145755463359E+02   -0.14508E+02   -0.14309E+02   632   0.911E+01
DAV:   4    -0.149837926145E+02   -0.40825E+00   -0.40642E+00   552   0.165E+01
DAV:   5    -0.149967748161E+02   -0.12982E-01   -0.12979E-01   692   0.295E+00    0.416E+00
DAV:   6    -0.148424090683E+02    0.15437E+00   -0.20562E-01   572   0.205E+00    0.244E+00
DAV:   7    -0.148091863654E+02    0.33223E-01   -0.15922E-01   564   0.202E+00    0.547E-01
DAV:   8    -0.148090034289E+02    0.18294E-03   -0.15410E-02   548   0.691E-01    0.151E-01
DAV:   9    -0.148099587432E+02   -0.95531E-03   -0.34769E-03   552   0.285E-01    0.776E-02
DAV:  10    -0.148100925981E+02   -0.13385E-03   -0.23339E-04   684   0.812E-02    0.415E-02
DAV:  11    -0.148102137009E+02   -0.12110E-03   -0.19269E-04   520   0.760E-02    0.110E-02
DAV:  12    -0.148102146050E+02   -0.90411E-06   -0.73504E-06   600   0.184E-02
   1 F= -.14810215E+02 E0= -.14809405E+02  d E =-.242943E-02
