<?xml version="1.0" encoding="ISO-8859-1"?>
<modeling>
 <generator>
  <i name="program" type="string">vasp </i>
  <i name="version" type="string">5.4.4.18Apr17-6-g9f103f2a35  </i>
  <i name="subversion" type="string">(build Dec 27 2023 19:01:38) complex            parallel </i>
  <i name="platform" type="string">LinuxIFC </i>
  <i name="date" type="string">2024 08 25 </i>
  <i name="time" type="string">12:23:00 </i>
 </generator>
 <incar>
  <i type="string" name="SYSTEM"> Ga2BiAs</i>
  <i type="string" name="PREC">accurate</i>
  <i type="int" name="ICHARG">     2</i>
  <i name="EDIFF">      0.00000100</i>
  <i name="EDIFFG">     -0.01000000</i>
  <i name="ENCUT">    500.00000000</i>
  <i type="string" name="LREAL"> Auto</i>
  <i type="logical" name="LWAVE"> F  </i>
  <i type="logical" name="LCHARG"> F  </i>
  <v type="int" name="KPOINT_BSE">    -1     0     0     0</v>
 </incar>
 <structure name="primitive_cell" >
  <crystal>
   <varray name="basis" >
    <v>       4.30014086       0.00000000       0.00000000 </v>
    <v>       0.00000000       4.30014086       0.00000000 </v>
    <v>       0.00000000       0.00000000       6.14586115 </v>
   </varray>
   <i name="volume">    113.64441771 </i>
   <varray name="rec_basis" >
    <v>       0.23255052       0.00000000       0.00000000 </v>
    <v>       0.00000000       0.23255052       0.00000000 </v>
    <v>       0.00000000       0.00000000       0.16271113 </v>
   </varray>
  </crystal>
  <varray name="positions" >
   <v>      -0.50000000       0.00000000      -0.27426398 </v>
   <v>      -0.50000000      -0.50000000      -0.50000000 </v>
   <v>       0.00000000       0.00000000       0.00000000 </v>
   <v>       0.00000000      -0.50000000       0.27426400 </v>
  </varray>
 </structure>
 <varray name="primitive_index" >
  <v type="int" >        1 </v>
  <v type="int" >        4 </v>
  <v type="int" >        3 </v>
  <v type="int" >        2 </v>
 </varray>
 <kpoints>
  <generation param="Gamma">
   <v type="int" name="divisions">       5        5        3 </v>
   <v name="usershift">      0.00000000       0.00000000       0.00000000 </v>
   <v name="genvec1">      0.20000000       0.00000000       0.00000000 </v>
   <v name="genvec2">      0.00000000       0.20000000       0.00000000 </v>
   <v name="genvec3">      0.00000000       0.00000000       0.33333333 </v>
   <v name="shift">      0.00000000       0.00000000       0.00000000 </v>
  </generation>
  <varray name="kpointlist" >
   <v>       0.00000000       0.00000000       0.00000000 </v>
   <v>       0.20000000       0.00000000       0.00000000 </v>
   <v>       0.40000000       0.00000000       0.00000000 </v>
   <v>       0.20000000       0.20000000       0.00000000 </v>
   <v>       0.40000000       0.20000000       0.00000000 </v>
   <v>       0.40000000       0.40000000       0.00000000 </v>
   <v>       0.00000000       0.00000000       0.33333333 </v>
   <v>       0.20000000       0.00000000       0.33333333 </v>
   <v>       0.40000000       0.00000000       0.33333333 </v>
   <v>       0.20000000       0.20000000       0.33333333 </v>
   <v>       0.40000000       0.20000000       0.33333333 </v>
   <v>       0.40000000       0.40000000       0.33333333 </v>
  </varray>
  <varray name="weights" >
   <v>       0.01333333 </v>
   <v>       0.05333333 </v>
   <v>       0.05333333 </v>
   <v>       0.05333333 </v>
   <v>       0.10666667 </v>
   <v>       0.05333333 </v>
   <v>       0.02666667 </v>
   <v>       0.10666667 </v>
   <v>       0.10666667 </v>
   <v>       0.10666667 </v>
   <v>       0.21333333 </v>
   <v>       0.10666667 </v>
  </varray>
 </kpoints>
 <parameters>
  <separator name="general" >
   <i type="string" name="SYSTEM">Ga2BiAs</i>
   <i type="logical" name="LCOMPAT"> F  </i>
  </separator>
  <separator name="electronic" >
   <i type="string" name="PREC">accura</i>
   <i name="ENMAX">    500.00000000</i>
   <i name="ENAUG">    462.75800000</i>
   <i name="EDIFF">      0.00000100</i>
   <i type="int" name="IALGO">    38</i>
   <i type="int" name="IWAVPR">    10</i>
   <i type="int" name="NBANDS">    20</i>
   <i name="NELECT">     26.00000000</i>
   <i type="int" name="TURBO">     0</i>
   <i type="int" name="IRESTART">     0</i>
   <i type="int" name="NREBOOT">     0</i>
   <i type="int" name="NMIN">     0</i>
   <i name="EREF">      0.00000000</i>
   <separator name="electronic smearing" >
    <i type="int" name="ISMEAR">     1</i>
    <i name="SIGMA">      0.20000000</i>
    <i name="KSPACING">      0.50000000</i>
    <i type="logical" name="KGAMMA"> T  </i>
   </separator>
   <separator name="electronic projectors" >
    <i type="logical" name="LREAL"> T  </i>
    <v name="ROPT">     -0.00025000     -0.00025000     -0.00025000</v>
    <i type="int" name="LMAXPAW">  -100</i>
    <i type="int" name="LMAXMIX">     2</i>
    <i type="logical" name="NLSPLINE"> F  </i>
   </separator>
   <separator name="electronic startup" >
    <i type="int" name="ISTART">     0</i>
    <i type="int" name="ICHARG">     2</i>
    <i type="int" name="INIWAV">     1</i>
   </separator>
   <separator name="electronic spin" >
    <i type="int" name="ISPIN">     1</i>
    <i type="logical" name="LNONCOLLINEAR"> F  </i>
    <v name="MAGMOM">      1.00000000      1.00000000      1.00000000      1.00000000</v>
    <i name="NUPDOWN">     -1.00000000</i>
    <i type="logical" name="LSORBIT"> F  </i>
    <v name="SAXIS">      0.00000000      0.00000000      1.00000000</v>
    <i type="logical" name="LSPIRAL"> F  </i>
    <v name="QSPIRAL">      0.00000000      0.00000000      0.00000000</v>
    <i type="logical" name="LZEROZ"> F  </i>
   </separator>
   <separator name="electronic exchange-correlation" >
    <i type="logical" name="LASPH"> F  </i>
    <i type="logical" name="LMETAGGA"> F  </i>
   </separator>
   <separator name="electronic convergence" >
    <i type="int" name="NELM">    60</i>
    <i type="int" name="NELMDL">    -5</i>
    <i type="int" name="NELMIN">     2</i>
    <i name="ENINI">    500.00000000</i>
    <separator name="electronic convergence detail" >
     <i type="logical" name="LDIAG"> T  </i>
     <i type="logical" name="LSUBROT"> F  </i>
     <i name="WEIMIN">      0.00000000</i>
     <i name="EBREAK">      0.00000001</i>
     <i name="DEPER">      0.30000000</i>
     <i type="int" name="NRMM">     4</i>
     <i name="TIME">      0.40000000</i>
    </separator>
   </separator>
   <separator name="electronic mixer" >
    <i name="AMIX">      0.40000000</i>
    <i name="BMIX">      1.00000000</i>
    <i name="AMIN">      0.10000000</i>
    <i name="AMIX_MAG">      1.60000000</i>
    <i name="BMIX_MAG">      1.00000000</i>
    <separator name="electronic mixer details" >
     <i type="int" name="IMIX">     4</i>
     <i type="logical" name="MIXFIRST"> F  </i>
     <i type="int" name="MAXMIX">   -45</i>
     <i name="WC">    100.00000000</i>
     <i type="int" name="INIMIX">     1</i>
     <i type="int" name="MIXPRE">     1</i>
     <i type="int" name="MREMOVE">     5</i>
    </separator>
   </separator>
   <separator name="electronic dipolcorrection" >
    <i type="logical" name="LDIPOL"> F  </i>
    <i type="logical" name="LMONO"> F  </i>
    <i type="int" name="IDIPOL">     0</i>
    <i name="EPSILON">      1.00000000</i>
    <v name="DIPOL">   -100.00000000   -100.00000000   -100.00000000</v>
    <i name="EFIELD">      0.00000000</i>
   </separator>
  </separator>
  <separator name="grids" >
   <i type="int" name="NGX">    32</i>
   <i type="int" name="NGY">    32</i>
   <i type="int" name="NGZ">    48</i>
   <i type="int" name="NGXF">    64</i>
   <i type="int" name="NGYF">    64</i>
   <i type="int" name="NGZF">    96</i>
   <i type="logical" name="ADDGRID"> F  </i>
  </separator>
  <separator name="ionic" >
   <i type="int" name="NSW">     0</i>
   <i type="int" name="IBRION">    -1</i>
   <i type="int" name="MDALGO">     0</i>
   <i type="int" name="ISIF">     2</i>
   <i name="PSTRESS">      0.00000000</i>
   <i name="EDIFFG">     -0.01000000</i>
   <i type="int" name="NFREE">     0</i>
   <i name="POTIM">      0.50000000</i>
   <i name="SMASS">     -3.00000000</i>
   <i name="SCALEE">      1.00000000</i>
  </separator>
  <separator name="ionic md" >
   <i name="TEBEG">      0.00010000</i>
   <i name="TEEND">      0.00010000</i>
   <i type="int" name="NBLOCK">     1</i>
   <i type="int" name="KBLOCK">     1</i>
   <i type="int" name="NPACO">   256</i>
   <i name="APACO">     16.00000000</i>
  </separator>
  <separator name="symmetry" >
   <i type="int" name="ISYM">     2</i>
   <i name="SYMPREC">      0.00001000</i>
  </separator>
  <separator name="dos" >
   <i type="int" name="LORBIT">     0</i>
   <v name="RWIGS">     -1.00000000     -1.00000000     -1.00000000</v>
   <i type="int" name="NEDOS">   301</i>
   <i name="EMIN">     10.00000000</i>
   <i name="EMAX">    -10.00000000</i>
   <i name="EFERMI">      0.00000000</i>
  </separator>
  <separator name="writing" >
   <i type="int" name="NWRITE">     2</i>
   <i type="logical" name="LWAVE"> F  </i>
   <i type="logical" name="LDOWNSAMPLE"> F  </i>
   <i type="logical" name="LCHARG"> F  </i>
   <i type="logical" name="LPARD"> F  </i>
   <i type="logical" name="LVTOT"> F  </i>
   <i type="logical" name="LVHAR"> F  </i>
   <i type="logical" name="LELF"> F  </i>
   <i type="logical" name="LOPTICS"> F  </i>
   <v name="STM">      0.00000000      0.00000000      0.00000000      0.00000000      0.00000000      0.00000000      0.00000000</v>
  </separator>
  <separator name="performance" >
   <i type="int" name="NPAR">     4</i>
   <i type="int" name="NSIM">     4</i>
   <i type="int" name="NBLK">    -1</i>
   <i type="logical" name="LPLANE"> T  </i>
   <i type="logical" name="LSCALAPACK"> T  </i>
   <i type="logical" name="LSCAAWARE"> F  </i>
   <i type="logical" name="LSCALU"> F  </i>
   <i type="logical" name="LASYNC"> F  </i>
   <i type="logical" name="LORBITALREAL"> F  </i>
  </separator>
  <separator name="miscellaneous" >
   <i type="int" name="IDIOT">     3</i>
   <i type="int" name="ISPECIAL">     0</i>
   <i type="logical" name="LMUSIC"> F  </i>
   <v name="POMASS">     69.72300000    208.98000000     74.92200000</v>
   <v name="DARWINR">      0.00000000      0.00000000      0.00000000</v>
   <v name="DARWINV">      1.00000000      1.00000000      1.00000000</v>
   <i type="logical" name="LCORR"> T  </i>
  </separator>
  <i type="logical" name="GGA_COMPAT"> T  </i>
  <i type="logical" name="LBERRY"> F  </i>
  <i type="int" name="ICORELEVEL">     0</i>
  <i type="logical" name="LDAU"> F  </i>
  <i type="int" name="I_CONSTRAINED_M">     0</i>
  <separator name="electronic exchange-correlation" >
   <i type="string" name="GGA">--</i>
   <i type="int" name="VOSKOWN">     0</i>
   <i type="logical" name="LHFCALC"> F  </i>
   <i type="string" name="PRECFOCK"></i>
   <i type="logical" name="LSYMGRAD"> F  </i>
   <i type="logical" name="LHFONE"> F  </i>
   <i type="logical" name="LRHFCALC"> F  </i>
   <i type="logical" name="LTHOMAS"> F  </i>
   <i type="logical" name="LMODELHF"> F  </i>
   <i name="ENCUT4O">     -1.00000000</i>
   <i type="int" name="EXXOEP">     0</i>
   <i type="int" name="FOURORBIT">     0</i>
   <i name="AEXX">      0.00000000</i>
   <i name="HFALPHA">      0.00000000</i>
   <i name="MCALPHA">      0.00000000</i>
   <i name="ALDAX">      1.00000000</i>
   <i name="AGGAX">      1.00000000</i>
   <i name="ALDAC">      1.00000000</i>
   <i name="AGGAC">      1.00000000</i>
   <i type="int" name="NKREDX">     1</i>
   <i type="int" name="NKREDY">     1</i>
   <i type="int" name="NKREDZ">     1</i>
   <i type="logical" name="SHIFTRED"> F  </i>
   <i type="logical" name="ODDONLY"> F  </i>
   <i type="logical" name="EVENONLY"> F  </i>
   <i type="int" name="LMAXFOCK">     0</i>
   <i type="int" name="NMAXFOCKAE">     0</i>
   <i type="logical" name="LFOCKAEDFT"> F  </i>
   <i name="HFSCREEN">      0.00000000</i>
   <i name="HFSCREENC">      0.00000000</i>
   <i type="int" name="NBANDSGWLOW">     0</i>
  </separator>
  <separator name="vdW DFT" >
   <i type="logical" name="LUSE_VDW"> F  </i>
   <i name="Zab_VDW">     -0.84910000</i>
   <i name="PARAM1">      0.12340000</i>
   <i name="PARAM2">      1.00000000</i>
   <i name="PARAM3">      0.00000000</i>
  </separator>
  <separator name="model GW" >
   <i type="int" name="MODEL_GW">     0</i>
   <i name="MODEL_EPS0">     17.04666266</i>
   <i name="MODEL_ALPHA">      1.00000000</i>
  </separator>
  <separator name="linear response parameters" >
   <i type="logical" name="LEPSILON"> F  </i>
   <i type="logical" name="LRPA"> F  </i>
   <i type="logical" name="LNABLA"> F  </i>
   <i type="logical" name="LVEL"> F  </i>
   <i type="int" name="KINTER">     0</i>
   <i name="CSHIFT">      0.10000000</i>
   <i name="OMEGAMAX">     -1.00000000</i>
   <i name="DEG_THRESHOLD">      0.00200000</i>
   <i name="RTIME">     -0.10000000</i>
   <i name="WPLASMAI">      0.00000000</i>
   <v name="DFIELD">      0.00000000      0.00000000      0.00000000</v>
   <v name="WPLASMA">      0.00000000      0.00000000      0.00000000      0.00000000      0.00000000      0.00000000      0.00000000      0.00000000      0.00000000</v>
  </separator>
  <separator name="orbital magnetization" >
   <i type="logical" name="NUCIND"> F  </i>
   <v name="MAGPOS">      0.00000000      0.00000000      0.00000000</v>
   <i type="logical" name="LNICSALL"> T  </i>
   <i type="logical" name="ORBITALMAG"> F  </i>
   <i type="logical" name="LMAGBLOCH"> F  </i>
   <i type="logical" name="LCHIMAG"> F  </i>
   <i type="logical" name="LGAUGE"> T  </i>
   <i type="int" name="MAGATOM">     0</i>
   <v name="MAGDIPOL">      0.00000000      0.00000000      0.00000000</v>
   <v name="AVECCONST">      0.00000000      0.00000000      0.00000000</v>
  </separator>
  <separator name="response functions" >
   <i type="logical" name="LADDER"> F  </i>
   <i type="logical" name="LRPAFORCE"> F  </i>
   <i type="logical" name="LFXC"> F  </i>
   <i type="logical" name="LHARTREE"> T  </i>
   <i type="int" name="IBSE">     0</i>
   <v type="int" name="KPOINT">    -1     0     0     0</v>
   <i type="logical" name="LTCTE"> F  </i>
   <i type="logical" name="LTETE"> F  </i>
   <i type="logical" name="LTRIPLET"> F  </i>
   <i type="logical" name="LFXCEPS"> F  </i>
   <i type="logical" name="LFXHEG"> F  </i>
   <i type="int" name="NATURALO">     2</i>
   <i type="logical" name="L2ORDER"> F  </i>
   <i type="logical" name="LMP2LT"> F  </i>
   <i type="logical" name="LUSEW"> F  </i>
   <i name="ENCUTGW">     -2.00000000</i>
   <i name="ENCUTGWSOFT">     -2.00000000</i>
   <i name="ENCUTLF">     -1.00000000</i>
   <i type="int" name="LMAXMP2">    -1</i>
   <i name="SCISSOR">      0.00000000</i>
   <i type="int" name="NOMEGA">     0</i>
   <i type="int" name="NOMEGAR">     0</i>
   <i type="int" name="NBANDSGW">    -1</i>
   <i type="int" name="NBANDSO">    -1</i>
   <i type="int" name="NBANDSV">    -1</i>
   <i type="int" name="NELM">     1</i>
   <i type="int" name="NELMHF">     1</i>
   <i type="int" name="DIM">     3</i>
   <i type="int" name="ANTIRES">     0</i>
   <i name="OMEGAMAX">    -30.00000000</i>
   <i name="OMEGAMIN">    -30.00000000</i>
   <i name="OMEGATL">   -200.00000000</i>
   <i type="int" name="OMEGAGRID">   140</i>
   <i name="CSHIFT">     -0.10000000</i>
   <i type="logical" name="SELFENERGY"> F  </i>
   <i type="logical" name="LSPECTRAL"> F  </i>
   <i type="logical" name="LSPECTRALGW"> F  </i>
   <i type="logical" name="LSINGLES"> F  </i>
   <i type="logical" name="LFERMIGW"> F  </i>
   <i type="logical" name="ODDONLYGW"> F  </i>
   <i type="logical" name="EVENONLYGW"> F  </i>
   <i type="int" name="NKREDLFX">     1</i>
   <i type="int" name="NKREDLFY">     1</i>
   <i type="int" name="NKREDLFZ">     1</i>
   <i type="int" name="MAXMEM">  2800</i>
   <i type="int" name="TELESCOPE">     0</i>
   <i type="int" name="TAUPAR">     1</i>
   <i type="int" name="OMEGAPAR">    -1</i>
   <i name="LAMBDA">      1.00000000</i>
  </separator>
  <separator name="External order field" >
   <i name="OFIELD_KAPPA">      0.00000000</i>
   <v name="OFIELD_K">      0.00000000      0.00000000      0.00000000</v>
   <i name="OFIELD_Q6_NEAR">      0.00000000</i>
   <i name="OFIELD_Q6_FAR">      0.00000000</i>
   <i name="OFIELD_A">      0.00000000</i>
  </separator>
 </parameters>
 <atominfo>
  <atoms>       4 </atoms>
  <types>       3 </types>
  <array name="atoms" >
   <dimension dim="1">ion</dimension>
   <field type="string">element</field>
   <field type="int">atomtype</field>
   <set>
    <rc><c>Ga</c><c>   1</c></rc>
    <rc><c>Ga</c><c>   1</c></rc>
    <rc><c>Bi</c><c>   2</c></rc>
    <rc><c>As</c><c>   3</c></rc>
   </set>
  </array>
  <array name="atomtypes" >
   <dimension dim="1">type</dimension>
   <field type="int">atomspertype</field>
   <field type="string">element</field>
   <field>mass</field>
   <field>valence</field>
   <field type="string">pseudopotential</field>
   <set>
    <rc><c>   2</c><c>Ga</c><c>     69.72300000</c><c>      3.00000000</c><c>  PAW_PBE Ga 08Apr2002                  </c></rc>
    <rc><c>   1</c><c>Bi</c><c>    208.98000000</c><c>     15.00000000</c><c>  PAW_PBE Bi_d 06Sep2000                </c></rc>
    <rc><c>   1</c><c>As</c><c>     74.92200000</c><c>      5.00000000</c><c>  PAW_PBE As 22Sep2009                  </c></rc>
   </set>
  </array>
 </atominfo>
 <structure name="initialpos" >
  <crystal>
   <varray name="basis" >
    <v>       4.30014086       0.00000000       0.00000000 </v>
    <v>       0.00000000       4.30014086       0.00000000 </v>
    <v>       0.00000000       0.00000000       6.14586115 </v>
   </varray>
   <i name="volume">    113.64441771 </i>
   <varray name="rec_basis" >
    <v>       0.23255052       0.00000000       0.00000000 </v>
    <v>       0.00000000       0.23255052       0.00000000 </v>
    <v>       0.00000000       0.00000000       0.16271113 </v>
   </varray>
  </crystal>
  <varray name="positions" >
   <v>       0.50000000       0.00000000       0.72573602 </v>
   <v>       0.00000000       0.50000000       0.27426400 </v>
   <v>       0.00000000       0.00000000       0.00000000 </v>
   <v>       0.50000000       0.50000000       0.50000000 </v>
  </varray>
 </structure>
 <calculation>
  <scstep>
   <time name="dav">    0.13    0.13</time>
   <time name="total">    0.15    0.26</time>
   <energy>
    <i name="alphaZ">     64.20128509 </i>
    <i name="ewald">  -1439.91766544 </i>
    <i name="hartreedc">   -749.41397116 </i>
    <i name="XCdc">     -1.78998093 </i>
    <i name="pawpsdc">   1946.54768465 </i>
    <i name="pawaedc">  -1848.13466329 </i>
    <i name="eentropy">     -0.01069289 </i>
    <i name="bandstr">    -40.32365064 </i>
    <i name="atom">   2247.12322143 </i>
    <i name="e_fr_energy">    178.28156682 </i>
    <i name="e_wo_entrp">    178.29225971 </i>
    <i name="e_0_energy">    178.28513111 </i>
   </energy>
  </scstep>
  <scstep>
   <time name="dav">    0.12    0.13</time>
   <time name="total">    0.12    0.13</time>
   <energy>
    <i name="e_fr_energy">     -0.06756045 </i>
    <i name="e_wo_entrp">     -0.06344137 </i>
    <i name="e_0_energy">     -0.06618743 </i>
   </energy>
  </scstep>
  <scstep>
   <time name="dav">    0.14    0.14</time>
   <time name="total">    0.14    0.15</time>
   <energy>
    <i name="e_fr_energy">    -14.57554634 </i>
    <i name="e_wo_entrp">    -14.57787946 </i>
    <i name="e_0_energy">    -14.57632404 </i>
   </energy>
  </scstep>
  <scstep>
   <time name="dav">    0.13    0.13</time>
   <time name="total">    0.13    0.13</time>
   <energy>
    <i name="e_fr_energy">    -14.98379261 </i>
    <i name="e_wo_entrp">    -14.98407639 </i>
    <i name="e_0_energy">    -14.98388721 </i>
   </energy>
  </scstep>
  <scstep>
   <time name="dav">    0.15    0.15</time>
   <time name="total">    0.17    0.17</time>
   <energy>
    <i name="e_fr_energy">    -14.99677482 </i>
    <i name="e_wo_entrp">    -14.99698804 </i>
    <i name="e_0_energy">    -14.99684589 </i>
   </energy>
  </scstep>
  <scstep>
   <time name="dav">    0.13    0.13</time>
   <time name="total">    0.16    0.16</time>
   <energy>
    <i name="e_fr_energy">    -14.84240907 </i>
    <i name="e_wo_entrp">    -14.84170078 </i>
    <i name="e_0_energy">    -14.84217297 </i>
   </energy>
  </scstep>
  <scstep>
   <time name="dav">    0.13    0.13</time>
   <time name="total">    0.15    0.15</time>
   <energy>
    <i name="e_fr_energy">    -14.80918637 </i>
    <i name="e_wo_entrp">    -14.80649752 </i>
    <i name="e_0_energy">    -14.80829009 </i>
   </energy>
  </scstep>
  <scstep>
   <time name="dav">    0.20    0.20</time>
   <time name="total">    0.23    0.23</time>
   <energy>
    <i name="e_fr_energy">    -14.80900343 </i>
    <i name="e_wo_entrp">    -14.80620648 </i>
    <i name="e_0_energy">    -14.80807111 </i>
   </energy>
  </scstep>
  <scstep>
   <time name="dav">    0.13    0.13</time>
   <time name="total">    0.16    0.16</time>
   <energy>
    <i name="e_fr_energy">    -14.80995874 </i>
    <i name="e_wo_entrp">    -14.80740150 </i>
    <i name="e_0_energy">    -14.80910633 </i>
   </energy>
  </scstep>
  <scstep>
   <time name="dav">    0.15    0.15</time>
   <time name="total">    0.17    0.17</time>
   <energy>
    <i name="e_fr_energy">    -14.81009260 </i>
    <i name="e_wo_entrp">    -14.80762895 </i>
    <i name="e_0_energy">    -14.80927138 </i>
   </energy>
  </scstep>
  <scstep>
   <time name="dav">    0.12    0.12</time>
   <time name="total">    0.14    0.14</time>
   <energy>
    <i name="e_fr_energy">    -14.81021370 </i>
    <i name="e_wo_entrp">    -14.80779557 </i>
    <i name="e_0_energy">    -14.80940766 </i>
   </energy>
  </scstep>
  <scstep>
   <time name="dav">    0.13    0.14</time>
   <time name="total">    0.14    0.15</time>
   <energy>
    <i name="alphaZ">     64.20128509 </i>
    <i name="ewald">  -1439.91766544 </i>
    <i name="hartreedc">   -753.94713447 </i>
    <i name="XCdc">     -0.91080740 </i>
    <i name="pawpsdc">   2421.89058668 </i>
    <i name="pawaedc">  -2326.54456646 </i>
    <i name="eentropy">     -0.00242943 </i>
    <i name="bandstr">   -226.70270460 </i>
    <i name="atom">   2247.12322143 </i>
    <i name="e_fr_energy">    -14.81021461 </i>
    <i name="e_wo_entrp">    -14.80778518 </i>
    <i name="e_0_energy">    -14.80940480 </i>
   </energy>
  </scstep>
  <structure>
   <crystal>
    <varray name="basis" >
     <v>       4.30014086       0.00000000       0.00000000 </v>
     <v>       0.00000000       4.30014086       0.00000000 </v>
     <v>       0.00000000       0.00000000       6.14586115 </v>
    </varray>
    <i name="volume">    113.64441771 </i>
    <varray name="rec_basis" >
     <v>       0.23255052       0.00000000       0.00000000 </v>
     <v>       0.00000000       0.23255052       0.00000000 </v>
     <v>       0.00000000       0.00000000       0.16271113 </v>
    </varray>
   </crystal>
   <varray name="positions" >
    <v>       0.50000000       0.00000000       0.72573602 </v>
    <v>       0.00000000       0.50000000       0.27426400 </v>
    <v>       0.00000000       0.00000000       0.00000000 </v>
    <v>       0.50000000       0.50000000       0.50000000 </v>
   </varray>
  </structure>
  <varray name="forces" >
   <v>      -0.00000000      -0.00000000       0.00492515 </v>
   <v>      -0.00000000      -0.00000000      -0.00492515 </v>
   <v>       0.00000000      -0.00000000       0.00000000 </v>
   <v>      -0.00000000       0.00000000       0.00000000 </v>
  </varray>
  <varray name="stress" >
   <v>       3.49227832       0.00000000       0.00000000 </v>
   <v>       0.00000000       3.49227832       0.00000000 </v>
   <v>      -0.00000000       0.00000000      -2.20688563 </v>
  </varray>
  <energy>
   <i name="e_fr_energy">    -14.81021461 </i>
   <i name="e_wo_entrp">    -14.80940480 </i>
   <i name="e_0_energy">     -0.00242943 </i>
  </energy>
  <time name="totalsc">    2.03    2.15</time>
  <eigenvalues>
   <array>
    <dimension dim="1">band</dimension>
    <dimension dim="2">kpoint</dimension>
    <dimension dim="3">spin</dimension>
    <field>eigene</field>
    <field>occ</field>
    <set>
     <set comment="spin 1">
      <set comment="kpoint 1">
       <r>  -19.2770    1.0000 </r>
       <r>  -19.2687    1.0000 </r>
       <r>  -19.2687    1.0000 </r>
       <r>  -19.2515    1.0000 </r>
       <r>  -19.2295    1.0000 </r>
       <r>   -9.1676    1.0000 </r>
       <r>   -7.4275    1.0000 </r>
       <r>   -3.5276    1.0000 </r>
       <r>    0.4666    1.0000 </r>
       <r>    0.4666    1.0000 </r>
       <r>    1.8478    1.0000 </r>
       <r>    2.9307    1.0352 </r>
       <r>    3.1839    0.4292 </r>
       <r>    3.1839    0.4292 </r>
       <r>    4.1271   -0.0000 </r>
       <r>    4.3928   -0.0000 </r>
       <r>    6.1908   -0.0000 </r>
       <r>    6.1908   -0.0000 </r>
       <r>    6.3582   -0.0000 </r>
       <r>    8.8990    0.0000 </r>
      </set>
      <set comment="kpoint 2">
       <r>  -19.2752    1.0000 </r>
       <r>  -19.2687    1.0000 </r>
       <r>  -19.2685    1.0000 </r>
       <r>  -19.2496    1.0000 </r>
       <r>  -19.2311    1.0000 </r>
       <r>   -8.9390    1.0000 </r>
       <r>   -7.4308    1.0000 </r>
       <r>   -3.4323    1.0000 </r>
       <r>   -0.4957    1.0000 </r>
       <r>    0.3325    1.0000 </r>
       <r>    0.6739    1.0000 </r>
       <r>    2.1018    1.0000 </r>
       <r>    3.0539    0.9041 </r>
       <r>    3.8270   -0.0000 </r>
       <r>    4.6861   -0.0000 </r>
       <r>    5.9905   -0.0000 </r>
       <r>    6.2906   -0.0000 </r>
       <r>    6.4511   -0.0000 </r>
       <r>    7.5612   -0.0000 </r>
       <r>    9.9510    0.0000 </r>
      </set>
      <set comment="kpoint 3">
       <r>  -19.2792    1.0000 </r>
       <r>  -19.2680    1.0000 </r>
       <r>  -19.2640    1.0000 </r>
       <r>  -19.2444    1.0000 </r>
       <r>  -19.2338    1.0000 </r>
       <r>   -8.3404    1.0000 </r>
       <r>   -7.6839    1.0000 </r>
       <r>   -3.0775    1.0000 </r>
       <r>   -1.9148    1.0000 </r>
       <r>   -0.3728    1.0000 </r>
       <r>    0.6029    1.0000 </r>
       <r>    1.1382    1.0000 </r>
       <r>    2.6733    1.0013 </r>
       <r>    4.3340   -0.0000 </r>
       <r>    5.3465   -0.0000 </r>
       <r>    7.0224   -0.0000 </r>
       <r>    7.2668   -0.0000 </r>
       <r>    7.5886   -0.0000 </r>
       <r>    8.5138   -0.0000 </r>
       <r>    8.6148   -0.0000 </r>
      </set>
      <set comment="kpoint 4">
       <r>  -19.2746    1.0000 </r>
       <r>  -19.2724    1.0000 </r>
       <r>  -19.2623    1.0000 </r>
       <r>  -19.2487    1.0000 </r>
       <r>  -19.2328    1.0000 </r>
       <r>   -8.7154    1.0000 </r>
       <r>   -7.3960    1.0000 </r>
       <r>   -3.4001    1.0000 </r>
       <r>   -0.8611    1.0000 </r>
       <r>   -0.1831    1.0000 </r>
       <r>    0.3070    1.0000 </r>
       <r>    1.7985    1.0000 </r>
       <r>    1.9463    1.0000 </r>
       <r>    4.7074   -0.0000 </r>
       <r>    5.2409   -0.0000 </r>
       <r>    6.0911   -0.0000 </r>
       <r>    6.5602   -0.0000 </r>
       <r>    7.9140   -0.0000 </r>
       <r>    8.2875   -0.0000 </r>
       <r>    8.4489   -0.0000 </r>
      </set>
      <set comment="kpoint 5">
       <r>  -19.2789    1.0000 </r>
       <r>  -19.2727    1.0000 </r>
       <r>  -19.2557    1.0000 </r>
       <r>  -19.2444    1.0000 </r>
       <r>  -19.2355    1.0000 </r>
       <r>   -8.1411    1.0000 </r>
       <r>   -7.5485    1.0000 </r>
       <r>   -3.2055    1.0000 </r>
       <r>   -2.2473    1.0000 </r>
       <r>   -0.1875    1.0000 </r>
       <r>    0.4651    1.0000 </r>
       <r>    0.7337    1.0000 </r>
       <r>    1.5231    1.0000 </r>
       <r>    4.9777   -0.0000 </r>
       <r>    5.3983   -0.0000 </r>
       <r>    6.1195   -0.0000 </r>
       <r>    6.5884   -0.0000 </r>
       <r>    7.4703   -0.0000 </r>
       <r>    8.4439   -0.0000 </r>
       <r>    9.2255    0.0000 </r>
      </set>
      <set comment="kpoint 6">
       <r>  -19.2784    1.0000 </r>
       <r>  -19.2782    1.0000 </r>
       <r>  -19.2445    1.0000 </r>
       <r>  -19.2439    1.0000 </r>
       <r>  -19.2384    1.0000 </r>
       <r>   -7.6879    1.0000 </r>
       <r>   -7.3640    1.0000 </r>
       <r>   -3.4866    1.0000 </r>
       <r>   -3.1014    1.0000 </r>
       <r>    0.1641    1.0000 </r>
       <r>    0.4020    1.0000 </r>
       <r>    0.7365    1.0000 </r>
       <r>    0.9055    1.0000 </r>
       <r>    4.0837   -0.0000 </r>
       <r>    4.4246   -0.0000 </r>
       <r>    4.8849   -0.0000 </r>
       <r>    5.2118   -0.0000 </r>
       <r>    9.9398    0.0000 </r>
       <r>    9.9566    0.0000 </r>
       <r>   10.6246    0.0000 </r>
      </set>
      <set comment="kpoint 7">
       <r>  -19.2770    1.0000 </r>
       <r>  -19.2688    1.0000 </r>
       <r>  -19.2688    1.0000 </r>
       <r>  -19.2513    1.0000 </r>
       <r>  -19.2295    1.0000 </r>
       <r>   -8.8560    1.0000 </r>
       <r>   -8.0363    1.0000 </r>
       <r>   -2.4419    1.0000 </r>
       <r>   -0.2412    1.0000 </r>
       <r>    0.7451    1.0000 </r>
       <r>    0.7451    1.0000 </r>
       <r>    2.3857    1.0000 </r>
       <r>    2.3857    1.0000 </r>
       <r>    3.9896   -0.0000 </r>
       <r>    4.7656   -0.0000 </r>
       <r>    5.0652   -0.0000 </r>
       <r>    5.7850   -0.0000 </r>
       <r>    7.5597   -0.0000 </r>
       <r>    7.5597   -0.0000 </r>
       <r>    9.6120    0.0000 </r>
      </set>
      <set comment="kpoint 8">
       <r>  -19.2753    1.0000 </r>
       <r>  -19.2687    1.0000 </r>
       <r>  -19.2685    1.0000 </r>
       <r>  -19.2495    1.0000 </r>
       <r>  -19.2311    1.0000 </r>
       <r>   -8.6530    1.0000 </r>
       <r>   -7.9248    1.0000 </r>
       <r>   -2.7320    1.0000 </r>
       <r>   -1.2546    1.0000 </r>
       <r>    0.4621    1.0000 </r>
       <r>    0.9036    1.0000 </r>
       <r>    2.1548    1.0000 </r>
       <r>    2.4885    1.0000 </r>
       <r>    3.8827   -0.0000 </r>
       <r>    4.8544   -0.0000 </r>
       <r>    6.0125   -0.0000 </r>
       <r>    6.8291   -0.0000 </r>
       <r>    7.3316   -0.0000 </r>
       <r>    7.7973   -0.0000 </r>
       <r>    8.5696   -0.0000 </r>
      </set>
      <set comment="kpoint 9">
       <r>  -19.2794    1.0000 </r>
       <r>  -19.2681    1.0000 </r>
       <r>  -19.2640    1.0000 </r>
       <r>  -19.2443    1.0000 </r>
       <r>  -19.2337    1.0000 </r>
       <r>   -8.1745    1.0000 </r>
       <r>   -7.8214    1.0000 </r>
       <r>   -3.2642    1.0000 </r>
       <r>   -2.6178    1.0000 </r>
       <r>    0.7368    1.0000 </r>
       <r>    1.2120    1.0000 </r>
       <r>    1.8227    1.0000 </r>
       <r>    2.6329    1.0005 </r>
       <r>    3.2965    0.0601 </r>
       <r>    4.3749   -0.0000 </r>
       <r>    6.7154   -0.0000 </r>
       <r>    7.0855   -0.0000 </r>
       <r>    7.2696   -0.0000 </r>
       <r>    7.7539   -0.0000 </r>
       <r>    9.3297    0.0000 </r>
      </set>
      <set comment="kpoint 10">
       <r>  -19.2747    1.0000 </r>
       <r>  -19.2725    1.0000 </r>
       <r>  -19.2623    1.0000 </r>
       <r>  -19.2485    1.0000 </r>
       <r>  -19.2328    1.0000 </r>
       <r>   -8.4541    1.0000 </r>
       <r>   -7.8046    1.0000 </r>
       <r>   -2.8627    1.0000 </r>
       <r>   -1.6821    1.0000 </r>
       <r>   -0.1134    1.0000 </r>
       <r>    0.7760    1.0000 </r>
       <r>    1.3811    1.0000 </r>
       <r>    2.3546    1.0000 </r>
       <r>    4.6323   -0.0000 </r>
       <r>    5.6209   -0.0000 </r>
       <r>    6.5793   -0.0000 </r>
       <r>    6.6990   -0.0000 </r>
       <r>    6.9987   -0.0000 </r>
       <r>    7.9122   -0.0000 </r>
       <r>    8.2849   -0.0000 </r>
      </set>
      <set comment="kpoint 11">
       <r>  -19.2790    1.0000 </r>
       <r>  -19.2727    1.0000 </r>
       <r>  -19.2557    1.0000 </r>
       <r>  -19.2443    1.0000 </r>
       <r>  -19.2355    1.0000 </r>
       <r>   -7.9951    1.0000 </r>
       <r>   -7.6672    1.0000 </r>
       <r>   -3.2388    1.0000 </r>
       <r>   -2.7080    1.0000 </r>
       <r>   -0.1291    1.0000 </r>
       <r>    0.6411    1.0000 </r>
       <r>    1.4285    1.0000 </r>
       <r>    1.5611    1.0000 </r>
       <r>    4.6643   -0.0000 </r>
       <r>    4.8743   -0.0000 </r>
       <r>    6.5710   -0.0000 </r>
       <r>    7.1267   -0.0000 </r>
       <r>    8.0819   -0.0000 </r>
       <r>    8.4963   -0.0000 </r>
       <r>    8.6763    0.0000 </r>
      </set>
      <set comment="kpoint 12">
       <r>  -19.2785    1.0000 </r>
       <r>  -19.2783    1.0000 </r>
       <r>  -19.2443    1.0000 </r>
       <r>  -19.2440    1.0000 </r>
       <r>  -19.2384    1.0000 </r>
       <r>   -7.6256    1.0000 </r>
       <r>   -7.3922    1.0000 </r>
       <r>   -3.3669    1.0000 </r>
       <r>   -3.1733    1.0000 </r>
       <r>   -0.4218    1.0000 </r>
       <r>    0.0170    1.0000 </r>
       <r>    0.6245    1.0000 </r>
       <r>    0.8777    1.0000 </r>
       <r>    4.8100   -0.0000 </r>
       <r>    5.7120   -0.0000 </r>
       <r>    5.9839   -0.0000 </r>
       <r>    7.1880   -0.0000 </r>
       <r>    7.9132   -0.0000 </r>
       <r>    9.0257    0.0000 </r>
       <r>    9.2868    0.0000 </r>
      </set>
     </set>
    </set>
   </array>
  </eigenvalues>
  <separator name="orbital magnetization" >
   <v name="MAGDIPOLOUT">      0.00000000      0.00000000      0.00000000</v>
  </separator>
  <dos>
   <i name="efermi">      3.16709639 </i>
   <total>
    <array>
     <dimension dim="1">gridpoints</dimension>
     <dimension dim="2">spin</dimension>
     <field>energy</field>
     <field>total</field>
     <field>integrated</field>
     <set>
      <set comment="spin 1">
       <r>   -21.2794     0.0000     0.0000 </r>
       <r>   -21.1663     0.0000     0.0000 </r>
       <r>   -21.0533     0.0000     0.0000 </r>
       <r>   -20.9403    -0.0000    -0.0000 </r>
       <r>   -20.8273    -0.0000    -0.0000 </r>
       <r>   -20.7143    -0.0000    -0.0000 </r>
       <r>   -20.6013    -0.0000    -0.0000 </r>
       <r>   -20.4883    -0.0000    -0.0000 </r>
       <r>   -20.3752    -0.0000    -0.0000 </r>
       <r>   -20.2622    -0.0000    -0.0000 </r>
       <r>   -20.1492    -0.0000    -0.0000 </r>
       <r>   -20.0362    -0.0000    -0.0000 </r>
       <r>   -19.9232    -0.0013    -0.0002 </r>
       <r>   -19.8102    -0.0304    -0.0036 </r>
       <r>   -19.6972    -0.3379    -0.0418 </r>
       <r>   -19.5842    -1.5476    -0.2167 </r>
       <r>   -19.4711    -0.6462    -0.2897 </r>
       <r>   -19.3581    14.2683     1.3228 </r>
       <r>   -19.2451    37.2129     5.5284 </r>
       <r>   -19.1321    33.2737     9.2887 </r>
       <r>   -19.0191     9.3090    10.3408 </r>
       <r>   -18.9061    -1.5770    10.1626 </r>
       <r>   -18.7931    -1.2104    10.0258 </r>
       <r>   -18.6801    -0.2113    10.0019 </r>
       <r>   -18.5670    -0.0160    10.0001 </r>
       <r>   -18.4540    -0.0006    10.0000 </r>
       <r>   -18.3410    -0.0000    10.0000 </r>
       <r>   -18.2280    -0.0000    10.0000 </r>
       <r>   -18.1150    -0.0000    10.0000 </r>
       <r>   -18.0020    -0.0000    10.0000 </r>
       <r>   -17.8890     0.0000    10.0000 </r>
       <r>   -17.7759     0.0000    10.0000 </r>
       <r>   -17.6629     0.0000    10.0000 </r>
       <r>   -17.5499     0.0000    10.0000 </r>
       <r>   -17.4369     0.0000    10.0000 </r>
       <r>   -17.3239     0.0000    10.0000 </r>
       <r>   -17.2109     0.0000    10.0000 </r>
       <r>   -17.0979     0.0000    10.0000 </r>
       <r>   -16.9849     0.0000    10.0000 </r>
       <r>   -16.8718     0.0000    10.0000 </r>
       <r>   -16.7588     0.0000    10.0000 </r>
       <r>   -16.6458     0.0000    10.0000 </r>
       <r>   -16.5328     0.0000    10.0000 </r>
       <r>   -16.4198     0.0000    10.0000 </r>
       <r>   -16.3068     0.0000    10.0000 </r>
       <r>   -16.1938     0.0000    10.0000 </r>
       <r>   -16.0807     0.0000    10.0000 </r>
       <r>   -15.9677     0.0000    10.0000 </r>
       <r>   -15.8547     0.0000    10.0000 </r>
       <r>   -15.7417     0.0000    10.0000 </r>
       <r>   -15.6287     0.0000    10.0000 </r>
       <r>   -15.5157     0.0000    10.0000 </r>
       <r>   -15.4027     0.0000    10.0000 </r>
       <r>   -15.2897     0.0000    10.0000 </r>
       <r>   -15.1766     0.0000    10.0000 </r>
       <r>   -15.0636     0.0000    10.0000 </r>
       <r>   -14.9506     0.0000    10.0000 </r>
       <r>   -14.8376     0.0000    10.0000 </r>
       <r>   -14.7246     0.0000    10.0000 </r>
       <r>   -14.6116     0.0000    10.0000 </r>
       <r>   -14.4986     0.0000    10.0000 </r>
       <r>   -14.3855     0.0000    10.0000 </r>
       <r>   -14.2725     0.0000    10.0000 </r>
       <r>   -14.1595     0.0000    10.0000 </r>
       <r>   -14.0465     0.0000    10.0000 </r>
       <r>   -13.9335     0.0000    10.0000 </r>
       <r>   -13.8205     0.0000    10.0000 </r>
       <r>   -13.7075     0.0000    10.0000 </r>
       <r>   -13.5945     0.0000    10.0000 </r>
       <r>   -13.4814     0.0000    10.0000 </r>
       <r>   -13.3684     0.0000    10.0000 </r>
       <r>   -13.2554     0.0000    10.0000 </r>
       <r>   -13.1424     0.0000    10.0000 </r>
       <r>   -13.0294     0.0000    10.0000 </r>
       <r>   -12.9164     0.0000    10.0000 </r>
       <r>   -12.8034     0.0000    10.0000 </r>
       <r>   -12.6903     0.0000    10.0000 </r>
       <r>   -12.5773     0.0000    10.0000 </r>
       <r>   -12.4643     0.0000    10.0000 </r>
       <r>   -12.3513     0.0000    10.0000 </r>
       <r>   -12.2383     0.0000    10.0000 </r>
       <r>   -12.1253     0.0000    10.0000 </r>
       <r>   -12.0123     0.0000    10.0000 </r>
       <r>   -11.8993     0.0000    10.0000 </r>
       <r>   -11.7862     0.0000    10.0000 </r>
       <r>   -11.6732     0.0000    10.0000 </r>
       <r>   -11.5602     0.0000    10.0000 </r>
       <r>   -11.4472     0.0000    10.0000 </r>
       <r>   -11.3342     0.0000    10.0000 </r>
       <r>   -11.2212     0.0000    10.0000 </r>
       <r>   -11.1082     0.0000    10.0000 </r>
       <r>   -10.9952     0.0000    10.0000 </r>
       <r>   -10.8821     0.0000    10.0000 </r>
       <r>   -10.7691    -0.0000    10.0000 </r>
       <r>   -10.6561    -0.0000    10.0000 </r>
       <r>   -10.5431    -0.0000    10.0000 </r>
       <r>   -10.4301    -0.0000    10.0000 </r>
       <r>   -10.3171    -0.0000    10.0000 </r>
       <r>   -10.2041    -0.0000    10.0000 </r>
       <r>   -10.0910    -0.0000    10.0000 </r>
       <r>    -9.9780    -0.0000    10.0000 </r>
       <r>    -9.8650    -0.0000    10.0000 </r>
       <r>    -9.7520    -0.0000    10.0000 </r>
       <r>    -9.6390    -0.0005     9.9999 </r>
       <r>    -9.5260    -0.0031     9.9996 </r>
       <r>    -9.4130    -0.0068     9.9988 </r>
       <r>    -9.3000     0.0079     9.9997 </r>
       <r>    -9.1869     0.0552    10.0059 </r>
       <r>    -9.0739     0.1553    10.0235 </r>
       <r>    -8.9609     0.3907    10.0677 </r>
       <r>    -8.8479     0.6835    10.1449 </r>
       <r>    -8.7349     1.0321    10.2615 </r>
       <r>    -8.6219     1.3309    10.4120 </r>
       <r>    -8.5089     1.2722    10.5557 </r>
       <r>    -8.3958     1.1330    10.6838 </r>
       <r>    -8.2828     1.1518    10.8139 </r>
       <r>    -8.1698     1.7424    11.0109 </r>
       <r>    -8.0568     2.7456    11.3211 </r>
       <r>    -7.9438     3.3600    11.7009 </r>
       <r>    -7.8308     3.5285    12.0996 </r>
       <r>    -7.7178     4.0531    12.5577 </r>
       <r>    -7.6048     4.4249    13.0578 </r>
       <r>    -7.4917     3.6817    13.4738 </r>
       <r>    -7.3787     2.7932    13.7895 </r>
       <r>    -7.2657     1.6785    13.9792 </r>
       <r>    -7.1527     0.3749    14.0216 </r>
       <r>    -7.0397    -0.1124    14.0089 </r>
       <r>    -6.9267    -0.0664    14.0014 </r>
       <r>    -6.8137    -0.0111    14.0001 </r>
       <r>    -6.7006    -0.0008    14.0000 </r>
       <r>    -6.5876    -0.0000    14.0000 </r>
       <r>    -6.4746    -0.0000    14.0000 </r>
       <r>    -6.3616    -0.0000    14.0000 </r>
       <r>    -6.2486    -0.0000    14.0000 </r>
       <r>    -6.1356    -0.0000    14.0000 </r>
       <r>    -6.0226     0.0000    14.0000 </r>
       <r>    -5.9096     0.0000    14.0000 </r>
       <r>    -5.7965     0.0000    14.0000 </r>
       <r>    -5.6835     0.0000    14.0000 </r>
       <r>    -5.5705     0.0000    14.0000 </r>
       <r>    -5.4575     0.0000    14.0000 </r>
       <r>    -5.3445     0.0000    14.0000 </r>
       <r>    -5.2315    -0.0000    14.0000 </r>
       <r>    -5.1185    -0.0000    14.0000 </r>
       <r>    -5.0054    -0.0000    14.0000 </r>
       <r>    -4.8924    -0.0000    14.0000 </r>
       <r>    -4.7794    -0.0000    14.0000 </r>
       <r>    -4.6664    -0.0000    14.0000 </r>
       <r>    -4.5534    -0.0000    14.0000 </r>
       <r>    -4.4404    -0.0000    14.0000 </r>
       <r>    -4.3274    -0.0000    14.0000 </r>
       <r>    -4.2144    -0.0000    14.0000 </r>
       <r>    -4.1013    -0.0001    14.0000 </r>
       <r>    -3.9883    -0.0021    13.9998 </r>
       <r>    -3.8753    -0.0183    13.9977 </r>
       <r>    -3.7623    -0.0732    13.9894 </r>
       <r>    -3.6493    -0.0604    13.9826 </r>
       <r>    -3.5363     0.4573    14.0343 </r>
       <r>    -3.4233     1.8154    14.2394 </r>
       <r>    -3.3103     3.7685    14.6653 </r>
       <r>    -3.1972     5.0709    15.2384 </r>
       <r>    -3.0842     3.8928    15.6783 </r>
       <r>    -2.9712     1.5675    15.8555 </r>
       <r>    -2.8582     1.1864    15.9896 </r>
       <r>    -2.7452     2.7062    16.2954 </r>
       <r>    -2.6322     3.3804    16.6774 </r>
       <r>    -2.5192     1.9679    16.8998 </r>
       <r>    -2.4061     0.5932    16.9669 </r>
       <r>    -2.2931     0.5778    17.0322 </r>
       <r>    -2.1801     0.8024    17.1228 </r>
       <r>    -2.0671     0.4751    17.1765 </r>
       <r>    -1.9541     0.2832    17.2085 </r>
       <r>    -1.8411     0.4686    17.2615 </r>
       <r>    -1.7281     0.7646    17.3479 </r>
       <r>    -1.6151     0.8459    17.4435 </r>
       <r>    -1.5020     0.4017    17.4889 </r>
       <r>    -1.3890     0.1891    17.5103 </r>
       <r>    -1.2760     0.6319    17.5817 </r>
       <r>    -1.1630     0.7912    17.6711 </r>
       <r>    -1.0500     0.3485    17.7105 </r>
       <r>    -0.9370     0.1968    17.7327 </r>
       <r>    -0.8240     0.3577    17.7732 </r>
       <r>    -0.7109     0.2260    17.7987 </r>
       <r>    -0.5979     0.1944    17.8207 </r>
       <r>    -0.4849     0.8412    17.9158 </r>
       <r>    -0.3719     1.5390    18.0897 </r>
       <r>    -0.2589     2.2818    18.3476 </r>
       <r>    -0.1459     3.7385    18.7701 </r>
       <r>    -0.0329     3.8848    19.2091 </r>
       <r>     0.0801     2.1098    19.4475 </r>
       <r>     0.1932     0.8656    19.5453 </r>
       <r>     0.3062     1.1368    19.6738 </r>
       <r>     0.4192     2.2833    19.9319 </r>
       <r>     0.5322     3.5905    20.3376 </r>
       <r>     0.6452     5.3123    20.9380 </r>
       <r>     0.7582     6.4533    21.6673 </r>
       <r>     0.8712     5.2263    22.2579 </r>
       <r>     0.9843     2.7039    22.5635 </r>
       <r>     1.0973     1.0391    22.6809 </r>
       <r>     1.2103     0.9716    22.7908 </r>
       <r>     1.3233     1.8671    23.0018 </r>
       <r>     1.4363     3.4105    23.3872 </r>
       <r>     1.5493     4.1339    23.8544 </r>
       <r>     1.6623     2.8409    24.1754 </r>
       <r>     1.7753     1.5642    24.3522 </r>
       <r>     1.8884     1.4310    24.5139 </r>
       <r>     2.0014     1.2645    24.6568 </r>
       <r>     2.1144     1.2025    24.7927 </r>
       <r>     2.2274     1.3496    24.9453 </r>
       <r>     2.3404     1.5434    25.1197 </r>
       <r>     2.4534     1.8705    25.3311 </r>
       <r>     2.5664     1.9289    25.5491 </r>
       <r>     2.6795     1.6315    25.7335 </r>
       <r>     2.7925     0.8821    25.8332 </r>
       <r>     2.9055     0.2537    25.8618 </r>
       <r>     3.0185     0.3141    25.8973 </r>
       <r>     3.1315     0.6397    25.9696 </r>
       <r>     3.2445     0.9524    26.0772 </r>
       <r>     3.3575     0.9856    26.1886 </r>
       <r>     3.4705     0.4589    26.2405 </r>
       <r>     3.5836    -0.0333    26.2367 </r>
       <r>     3.6966     0.0439    26.2417 </r>
       <r>     3.8096     0.7467    26.3261 </r>
       <r>     3.9226     1.4013    26.4845 </r>
       <r>     4.0356     1.2318    26.6237 </r>
       <r>     4.1486     0.7201    26.7050 </r>
       <r>     4.2616     0.7463    26.7894 </r>
       <r>     4.3746     1.3746    26.9447 </r>
       <r>     4.4877     1.6472    27.1309 </r>
       <r>     4.6007     2.3167    27.3927 </r>
       <r>     4.7137     4.0737    27.8531 </r>
       <r>     4.8267     5.2525    28.4467 </r>
       <r>     4.9397     4.7354    28.9819 </r>
       <r>     5.0527     2.6337    29.2795 </r>
       <r>     5.1657     1.0837    29.4020 </r>
       <r>     5.2788     1.1818    29.5355 </r>
       <r>     5.3918     1.5418    29.7098 </r>
       <r>     5.5048     1.3195    29.8589 </r>
       <r>     5.6178     1.3178    30.0078 </r>
       <r>     5.7308     1.5257    30.1802 </r>
       <r>     5.8438     1.3111    30.3284 </r>
       <r>     5.9568     1.8765    30.5405 </r>
       <r>     6.0698     2.9717    30.8763 </r>
       <r>     6.1829     2.5434    31.1638 </r>
       <r>     6.2959     1.1819    31.2974 </r>
       <r>     6.4089     0.9816    31.4083 </r>
       <r>     6.5219     2.8970    31.7357 </r>
       <r>     6.6349     4.8999    32.2894 </r>
       <r>     6.7479     4.1995    32.7640 </r>
       <r>     6.8609     2.2502    33.0183 </r>
       <r>     6.9740     1.9268    33.2361 </r>
       <r>     7.0870     3.4803    33.6294 </r>
       <r>     7.2000     4.5515    34.1438 </r>
       <r>     7.3130     3.8067    34.5740 </r>
       <r>     7.4260     2.5402    34.8611 </r>
       <r>     7.5390     2.0013    35.0872 </r>
       <r>     7.6520     1.8728    35.2989 </r>
       <r>     7.7650     2.1893    35.5463 </r>
       <r>     7.8781     3.0422    35.8901 </r>
       <r>     7.9911     3.2633    36.2589 </r>
       <r>     8.1041     2.5855    36.5511 </r>
       <r>     8.2171     1.8038    36.7550 </r>
       <r>     8.3301     1.8778    36.9672 </r>
       <r>     8.4431     3.3169    37.3420 </r>
       <r>     8.5561     4.7834    37.8826 </r>
       <r>     8.6692     4.2783    38.3661 </r>
       <r>     8.7822     2.1982    38.6145 </r>
       <r>     8.8952     0.6276    38.6855 </r>
       <r>     9.0082     0.5482    38.7474 </r>
       <r>     9.1212     1.1015    38.8719 </r>
       <r>     9.2342     1.9487    39.0921 </r>
       <r>     9.3472     2.3805    39.3612 </r>
       <r>     9.4602     1.3869    39.5179 </r>
       <r>     9.5733     0.3030    39.5522 </r>
       <r>     9.6863     0.0409    39.5568 </r>
       <r>     9.7993     0.2308    39.5829 </r>
       <r>     9.9123     0.9128    39.6860 </r>
       <r>    10.0253     1.2638    39.8288 </r>
       <r>    10.1383     0.6210    39.8990 </r>
       <r>    10.2513     0.0152    39.9007 </r>
       <r>    10.3644    -0.0805    39.8916 </r>
       <r>    10.4774     0.0433    39.8965 </r>
       <r>    10.5904     0.3092    39.9315 </r>
       <r>    10.7034     0.4236    39.9793 </r>
       <r>    10.8164     0.2019    40.0022 </r>
       <r>    10.9294     0.0059    40.0028 </r>
       <r>    11.0424    -0.0195    40.0006 </r>
       <r>    11.1554    -0.0051    40.0001 </r>
       <r>    11.2685    -0.0005    40.0000 </r>
       <r>    11.3815    -0.0000    40.0000 </r>
       <r>    11.4945    -0.0000    40.0000 </r>
       <r>    11.6075    -0.0000    40.0000 </r>
       <r>    11.7205    -0.0000    40.0000 </r>
       <r>    11.8335    -0.0000    40.0000 </r>
       <r>    11.9465    -0.0000    40.0000 </r>
       <r>    12.0595     0.0000    40.0000 </r>
       <r>    12.1726     0.0000    40.0000 </r>
       <r>    12.2856     0.0000    40.0000 </r>
       <r>    12.3986     0.0000    40.0000 </r>
       <r>    12.5116     0.0000    40.0000 </r>
       <r>    12.6246     0.0000    40.0000 </r>
      </set>
     </set>
    </array>
   </total>
  </dos>
 </calculation>
 <structure name="finalpos" >
  <crystal>
   <varray name="basis" >
    <v>       4.30014086       0.00000000       0.00000000 </v>
    <v>       0.00000000       4.30014086       0.00000000 </v>
    <v>       0.00000000       0.00000000       6.14586115 </v>
   </varray>
   <i name="volume">    113.64441771 </i>
   <varray name="rec_basis" >
    <v>       0.23255052       0.00000000       0.00000000 </v>
    <v>       0.00000000       0.23255052       0.00000000 </v>
    <v>       0.00000000       0.00000000       0.16271113 </v>
   </varray>
  </crystal>
  <varray name="positions" >
   <v>       0.50000000       0.00000000       0.72573602 </v>
   <v>       0.00000000       0.50000000       0.27426400 </v>
   <v>       0.00000000       0.00000000       0.00000000 </v>
   <v>       0.50000000       0.50000000       0.50000000 </v>
  </varray>
 </structure>
</modeling>
